LAMMPS (27 May 2021)
# Jun 08 2019
# Author: Abdourahmane Diaw (diaw@radiasoft.net)
# LAMMPS script for radial distribution function of a binary plasma.
# Physical conditions considered: Carbon and Hydrogen
# total density 1e25 cc, T=100 eV, concentration at 50%.
# Fix ave/time to compute RDF


echo both

#############  begin parameters ################################
# All quantities are in cgs units


variable Temp     equal 100.*11600
variable ZH       equal 1.0
variable ZC       equal 6.0

# Plasma parameters

variable       Npart        equal   100 # ------> change this to 2000 to get less noisy results
variable       xlen         equal   2e-08
variable       gdis         equal   ${xlen}/160
variable       gdis         equal   2e-08/160
variable       prcoeff      equal   2.306881e-19
variable       charge_H     equal   4.803000e-10*${ZH}
variable       charge_H     equal   4.803000e-10*1
variable       charge_C     equal   4.803000e-10*${ZC}
variable       charge_C     equal   4.803000e-10*6
variable       Imas_H       equal   1.*1.660000e-24
variable       Imas_C       equal   12.*1.660000e-24

# Runtime

variable teq   equal 2000       # equilibration time
variable trun  equal 2000       # production time  ------> change this to 200000 to get less noisy results

variable d     equal floor(${trun}/100) # dump time
variable d     equal floor(2000/100) 
variable freq  equal floor(${trun}/10) # production run
variable freq  equal floor(2000/10) 

# MD setup

units             cgs
atom_style        charge
newton            on
dimension         3
boundary          p p p

lattice          sc ${gdis}
lattice          sc 1.25e-10
Lattice spacing in x,y,z = 1.2500000e-10 1.2500000e-10 1.2500000e-10
region           simbox block 0 ${xlen} 0 ${xlen} 0 ${xlen} units box
region           simbox block 0 2e-08 0 ${xlen} 0 ${xlen} units box
region           simbox block 0 2e-08 0 2e-08 0 ${xlen} units box
region           simbox block 0 2e-08 0 2e-08 0 2e-08 units box
create_box    2  simbox
Created orthogonal box = (0.0000000 0.0000000 0.0000000) to (2.0000000e-08 2.0000000e-08 2.0000000e-08)
  1 by 1 by 1 MPI processor grid

create_atoms    1 random ${Npart}  257349 simbox
create_atoms    1 random 100  257349 simbox
Created 100 atoms
  create_atoms CPU = 0.000 seconds
create_atoms    2 random ${Npart}  157349 simbox
create_atoms    2 random 100  157349 simbox
Created 100 atoms
  create_atoms CPU = 0.000 seconds

group atom1 type 1
100 atoms in group atom1
group atom2 type 2
100 atoms in group atom2

# Charges and masses of species

set    type 1 charge  ${charge_H}
set    type 1 charge  4.803e-10
Setting atom values ...
  100 settings made for charge
set    type 2 charge  ${charge_C}
set    type 2 charge  2.8818e-09
Setting atom values ...
  100 settings made for charge

mass        1 ${Imas_H}
mass        1 1.66e-24
mass        2 ${Imas_C}
mass        2 1.992e-23

# Params

variable       dens      equal     count(all)/vol
variable       rc        equal     lx/2
variable       dbin      equal     0.1*${rc}
variable       dbin      equal     0.1*1e-08
variable       wp        equal     1.2e3*sqrt(${dens})
variable       wp        equal     1.2e3*sqrt(2.5e+25)
variable       dtstep    equal     1.0/(300.*${wp})
variable       dtstep    equal     1.0/(300.*6e+15)
variable       Tdamp     equal     1e2*${dtstep}
variable       Tdamp     equal     1e2*5.55555555555556e-19


# Define interactions here

pair_style      coul/long     ${rc}
pair_style      coul/long     1e-08
pair_coeff      *   *

neighbor         ${dbin}       bin
neighbor         1e-09       bin
neigh_modify     every         1 delay 0  check yes page 50000 one 5000
pair_modify      table         0
kspace_style     ewald      1e-4


timestep          ${dtstep}
timestep          5.55555555555556e-19

# Initial velocities and thermostats

velocity         all create ${Temp} 102486 dist gaussian units box
velocity         all create 1160000 102486 dist gaussian units box

fix             nvtid all nvt temp ${Temp} ${Temp} ${Tdamp}
fix             nvtid all nvt temp 1160000 ${Temp} ${Tdamp}
fix             nvtid all nvt temp 1160000 1160000 ${Tdamp}
fix             nvtid all nvt temp 1160000 1160000 5.55555555555556e-17

thermo            $d
thermo            20
thermo_style      custom step pe ke etotal temp vol
thermo_modify     flush yes

run      ${teq}
run      2000
Ewald initialization ...
  using polynomial approximation for long-range coulomb (../kspace.cpp:342)
  G vector (1/distance) = 3.7987644e+08
  estimated absolute RMS force accuracy = 2.3121767e-07
  estimated relative force accuracy = 0.00010022103
  KSpace vectors: actual max1d max3d = 2084 10 4630
                  kxmax kymax kzmax  = 10 10 10
Neighbor list info ...
  update every 1 steps, delay 0 steps, check yes
  max neighbors/atom: 5000, page size: 50000
  master list distance cutoff = 1.1e-08
  ghost atom cutoff = 1.1e-08
  binsize = 5.5e-09, bins = 4 4 4
  1 neighbor lists, perpetual/occasional/extra = 1 0 0
  (1) pair coul/long, perpetual
      attributes: half, newton on
      pair build: half/bin/atomonly/newton
      stencil: half/bin/3d
      bin: standard
Per MPI rank memory allocation (min/avg/max) = 19.74 | 19.74 | 19.74 Mbytes
Step PotEng KinEng TotEng Temp Volume 
       0 -7.6943893e-08 4.7806401e-08 -2.9137492e-08      1160000        8e-24 
      20 -8.3658257e-08 5.4467207e-08 -2.919105e-08    1321621.4        8e-24 
      40 -9.9008972e-08 6.8958775e-08 -3.0050196e-08    1673252.5        8e-24 
      60 -1.1769037e-07 8.3840921e-08 -3.384945e-08    2034360.8        8e-24 
      80 -1.3702905e-07 9.589904e-08 -4.1130006e-08    2326945.4        8e-24 
     100 -1.5598123e-07 1.0675783e-07 -4.9223398e-08      2590429        8e-24 
     120 -1.737252e-07 1.1357936e-07 -6.0145841e-08    2755950.2        8e-24 
     140 -1.8973547e-07 1.1579946e-07 -7.3936003e-08      2809820        8e-24 
     160 -2.040115e-07 1.1501818e-07 -8.8993313e-08    2790862.5        8e-24 
     180 -2.1673995e-07 1.1211543e-07 -1.0462452e-07    2720428.6        8e-24 
     200 -2.2800919e-07 1.0777282e-07 -1.2023637e-07    2615057.1        8e-24 
     220 -2.3772254e-07 1.0238104e-07 -1.3534149e-07    2484228.2        8e-24 
     240 -2.4597664e-07 9.6389067e-08 -1.4958757e-07    2338835.7        8e-24 
     260 -2.529217e-07 9.0167251e-08 -1.6275445e-07    2187866.3        8e-24 
     280 -2.5871373e-07 8.3983135e-08 -1.747306e-07    2037811.6        8e-24 
     300 -2.6348446e-07 7.800135e-08 -1.8548311e-07    1892666.4        8e-24 
     320 -2.6733424e-07 7.2305304e-08 -1.9502893e-07    1754454.4        8e-24 
     340 -2.7034531e-07 6.6932053e-08 -2.0341325e-07      1624075        8e-24 
     360 -2.7259767e-07 6.1901507e-08 -2.1069617e-07    1502011.2        8e-24 
     380 -2.7417848e-07 5.7233034e-08 -2.1694544e-07    1388732.9        8e-24 
     400 -2.7518519e-07 5.2952769e-08 -2.2223242e-07    1284874.2        8e-24 
     420 -2.7572613e-07 4.9097059e-08 -2.2662907e-07    1191317.2        8e-24 
     440 -2.759212e-07 4.5715805e-08 -2.302054e-07    1109272.7        8e-24 
     460 -2.7589741e-07 4.2870924e-08 -2.3302649e-07      1040243        8e-24 
     480 -2.7576615e-07 4.0617836e-08 -2.3514831e-07    985572.83        8e-24 
     500 -2.755994e-07 3.8987551e-08 -2.3661184e-07    946014.73        8e-24 
     520 -2.7544179e-07 3.8003044e-08 -2.3743875e-07    922126.13        8e-24 
     540 -2.7532262e-07 3.769002e-08 -2.376326e-07    914530.74        8e-24 
     560 -2.7524187e-07 3.8053469e-08 -2.371884e-07    923349.67        8e-24 
     580 -2.7518271e-07 3.9069408e-08 -2.361133e-07    948000.96        8e-24 
     600 -2.751318e-07 4.0677959e-08 -2.3445384e-07     987031.7        8e-24 
     620 -2.7508111e-07 4.2767634e-08 -2.3231348e-07    1037736.7        8e-24 
     640 -2.7503558e-07 4.5189348e-08 -2.2984623e-07    1096498.4        8e-24 
     660 -2.7502648e-07 4.7792853e-08 -2.2723363e-07    1159671.3        8e-24 
     680 -2.7510713e-07 5.0440811e-08 -2.2466632e-07    1223922.7        8e-24 
     700 -2.7532117e-07 5.2980716e-08 -2.2234046e-07    1285552.3        8e-24 
     720 -2.7566457e-07 5.5203746e-08 -2.2046083e-07    1339493.1        8e-24 
     740 -2.7609033e-07 5.6855249e-08 -2.1923508e-07    1379566.1        8e-24 
     760 -2.7655987e-07 5.7713564e-08 -2.1884631e-07    1400392.7        8e-24 
     780 -2.7704528e-07 5.7641051e-08 -2.1940423e-07    1398633.2        8e-24 
     800 -2.7751983e-07 5.6632491e-08 -2.2088734e-07      1374161        8e-24 
     820 -2.7798917e-07 5.4876383e-08 -2.2311278e-07    1331549.8        8e-24 
     840 -2.7849284e-07 5.2710758e-08 -2.2578208e-07      1279002        8e-24 
     860 -2.7902259e-07 5.0437363e-08 -2.2858523e-07    1223839.1        8e-24 
     880 -2.7951584e-07 4.8236105e-08 -2.3127974e-07    1170426.6        8e-24 
     900 -2.8001747e-07 4.6306353e-08 -2.3371112e-07      1123602        8e-24 
     920 -2.8058346e-07 4.4780965e-08 -2.3580249e-07    1086589.2        8e-24 
     940 -2.8111377e-07 4.3593098e-08 -2.3752067e-07    1057766.2        8e-24 
     960 -2.8159492e-07 4.2745126e-08 -2.3884979e-07    1037190.5        8e-24 
     980 -2.8201519e-07 4.2233236e-08 -2.3978195e-07    1024769.8        8e-24 
    1000 -2.8234103e-07 4.2028942e-08 -2.4031209e-07    1019812.7        8e-24 
    1020 -2.8255616e-07 4.2118583e-08 -2.4043757e-07    1021987.7        8e-24 
    1040 -2.8266457e-07 4.2502329e-08 -2.4016224e-07    1031299.2        8e-24 
    1060 -2.8265253e-07 4.3149544e-08 -2.3950299e-07    1047003.5        8e-24 
    1080 -2.8247824e-07 4.3982307e-08 -2.3849593e-07    1067210.2        8e-24 
    1100 -2.8211947e-07 4.4921506e-08 -2.3719796e-07    1089999.4        8e-24 
    1120 -2.8161085e-07 4.5928677e-08 -2.3568217e-07    1114437.9        8e-24 
    1140 -2.8102532e-07 4.6994594e-08 -2.3403072e-07    1140301.9        8e-24 
    1160 -2.8041786e-07 4.8088248e-08 -2.3232961e-07    1166838.9        8e-24 
    1180 -2.7979337e-07 4.9128016e-08 -2.3066536e-07    1192068.4        8e-24 
    1200 -2.791353e-07 5.0015128e-08 -2.2912018e-07    1213593.7        8e-24 
    1220 -2.7847606e-07 5.0711101e-08 -2.2776496e-07    1230481.2        8e-24 
    1240 -2.7790378e-07 5.1248104e-08 -2.2665568e-07    1243511.3        8e-24 
    1260 -2.7739353e-07 5.1557226e-08 -2.258363e-07      1251012        8e-24 
    1280 -2.7691999e-07 5.1585082e-08 -2.2533491e-07    1251687.9        8e-24 
    1300 -2.7648556e-07 5.1329591e-08 -2.2515597e-07    1245488.6        8e-24 
    1320 -2.76098e-07 5.0820488e-08 -2.2527751e-07    1233135.4        8e-24 
    1340 -2.7577316e-07 5.0120307e-08 -2.2565285e-07    1216145.9        8e-24 
    1360 -2.7555572e-07  4.93381e-08 -2.2621762e-07      1197166        8e-24 
    1380 -2.7549301e-07 4.8591088e-08 -2.2690192e-07    1179040.1        8e-24 
    1400 -2.7560319e-07 4.7960923e-08 -2.2764226e-07    1163749.4        8e-24 
    1420 -2.7586968e-07 4.7481418e-08 -2.2838826e-07    1152114.5        8e-24 
    1440 -2.7623753e-07 4.7133825e-08 -2.291037e-07    1143680.3        8e-24 
    1460 -2.7663938e-07 4.6875921e-08 -2.2976346e-07    1137422.3        8e-24 
    1480 -2.7702114e-07 4.6671837e-08 -2.303493e-07    1132470.3        8e-24 
    1500 -2.7735955e-07 4.6512506e-08 -2.3084704e-07    1128604.2        8e-24 
    1520 -2.7766885e-07 4.6422949e-08 -2.312459e-07    1126431.2        8e-24 
    1540 -2.7798808e-07 4.6447815e-08 -2.3154026e-07    1127034.6        8e-24 
    1560 -2.7834595e-07 4.6613488e-08 -2.3173246e-07    1131054.5        8e-24 
    1580 -2.7874293e-07 4.6908422e-08 -2.3183451e-07      1138211        8e-24 
    1600 -2.7916017e-07 4.7292376e-08 -2.318678e-07    1147527.4        8e-24 
    1620 -2.7956291e-07 4.7702098e-08 -2.3186082e-07    1157469.1        8e-24 
    1640 -2.7991133e-07 4.8066352e-08 -2.3184498e-07    1166307.6        8e-24 
    1660 -2.8018836e-07 4.8339064e-08 -2.3184929e-07    1172924.8        8e-24 
    1680 -2.8041571e-07 4.8519289e-08 -2.3189642e-07    1177297.9        8e-24 
    1700 -2.8062887e-07 4.8626906e-08 -2.3200196e-07    1179909.2        8e-24 
    1720 -2.8084606e-07 4.8670568e-08 -2.3217549e-07    1180968.6        8e-24 
    1740 -2.8106333e-07 4.8642215e-08 -2.3242111e-07    1180280.6        8e-24 
    1760 -2.8123631e-07 4.8500096e-08 -2.3273622e-07    1176832.2        8e-24 
    1780 -2.8135268e-07 4.8244177e-08 -2.331085e-07    1170622.4        8e-24 
    1800 -2.8149341e-07 4.7976195e-08 -2.3351722e-07      1164120        8e-24 
    1820 -2.817753e-07 4.783323e-08 -2.3394207e-07      1160651        8e-24 
    1840 -2.8221894e-07 4.7845787e-08 -2.3437315e-07    1160955.7        8e-24 
    1860 -2.8271793e-07 4.7906296e-08 -2.3481163e-07    1162423.9        8e-24 
    1880 -2.8318049e-07 4.7918731e-08 -2.3526176e-07    1162725.6        8e-24 
    1900 -2.835585e-07 4.7834948e-08 -2.3572356e-07    1160692.7        8e-24 
    1920 -2.838181e-07 4.7629016e-08 -2.3618909e-07    1155695.8        8e-24 
    1940 -2.8393914e-07 4.7298432e-08 -2.3664071e-07    1147674.4        8e-24 
    1960 -2.8393749e-07 4.6885734e-08 -2.3705176e-07    1137660.4        8e-24 
    1980 -2.8387933e-07 4.6488472e-08 -2.3739085e-07    1128021.1        8e-24 
    2000 -2.8381206e-07 4.618323e-08 -2.3762883e-07    1120614.5        8e-24 
Loop time of 8.34471 on 1 procs for 2000 steps with 200 atoms

100.0% CPU use with 1 MPI tasks x no OpenMP threads

MPI task timing breakdown:
Section |  min time  |  avg time  |  max time  |%varavg| %total
---------------------------------------------------------------
Pair    | 1.252      | 1.252      | 1.252      |   0.0 | 15.00
Kspace  | 7.0018     | 7.0018     | 7.0018     |   0.0 | 83.91
Neigh   | 0.042044   | 0.042044   | 0.042044   |   0.0 |  0.50
Comm    | 0.02717    | 0.02717    | 0.02717    |   0.0 |  0.33
Output  | 0.0021155  | 0.0021155  | 0.0021155  |   0.0 |  0.03
Modify  | 0.01367    | 0.01367    | 0.01367    |   0.0 |  0.16
Other   |            | 0.005866   |            |       |  0.07

Nlocal:        200.000 ave         200 max         200 min
Histogram: 1 0 0 0 0 0 0 0 0 0
Nghost:        1668.00 ave        1668 max        1668 min
Histogram: 1 0 0 0 0 0 0 0 0 0
Neighs:        13875.0 ave       13875 max       13875 min
Histogram: 1 0 0 0 0 0 0 0 0 0

Total # of neighbors = 13875
Ave neighs/atom = 69.375000
Neighbor list builds = 70
Dangerous builds = 0

unfix                   nvtid

velocity all scale ${Temp}
velocity all scale 1160000

reset_timestep          0

fix         nveid         all     nve


variable fileTag string gofr_BIM_CH.csv


compute     myRDF330 all rdf 1024  1 1 1 2 2 2
fix         rdfid330 all ave/time 1 ${freq} ${trun} c_myRDF330[1] c_myRDF330[2]  c_myRDF330[4] c_myRDF330[6] file ${fileTag} mode vector
fix         rdfid330 all ave/time 1 200 ${trun} c_myRDF330[1] c_myRDF330[2]  c_myRDF330[4] c_myRDF330[6] file ${fileTag} mode vector
fix         rdfid330 all ave/time 1 200 2000 c_myRDF330[1] c_myRDF330[2]  c_myRDF330[4] c_myRDF330[6] file ${fileTag} mode vector
fix         rdfid330 all ave/time 1 200 2000 c_myRDF330[1] c_myRDF330[2]  c_myRDF330[4] c_myRDF330[6] file gofr_BIM_CH.csv mode vector

thermo            $d
thermo            20
thermo_style      custom step pe ke etotal temp vol
WARNING: New thermo_style command, previous thermo_modify settings will be lost (../output.cpp:689)

variable T_eV equal ${Temp}/11600.
variable T_eV equal 1160000/11600.
run      ${trun}
run      2000
Ewald initialization ...
  using polynomial approximation for long-range coulomb (../kspace.cpp:342)
  G vector (1/distance) = 3.7987644e+08
  estimated absolute RMS force accuracy = 2.3121767e-07
  estimated relative force accuracy = 0.00010022103
  KSpace vectors: actual max1d max3d = 2084 10 4630
                  kxmax kymax kzmax  = 10 10 10
Neighbor list info ...
  update every 1 steps, delay 0 steps, check yes
  max neighbors/atom: 5000, page size: 50000
  master list distance cutoff = 1.1e-08
  ghost atom cutoff = 1.1e-08
  binsize = 5.5e-09, bins = 4 4 4
  2 neighbor lists, perpetual/occasional/extra = 1 1 0
  (1) pair coul/long, perpetual
      attributes: half, newton on
      pair build: half/bin/atomonly/newton
      stencil: half/bin/3d
      bin: standard
  (2) compute rdf, occasional, copy from (1)
      attributes: half, newton on
      pair build: copy
      stencil: none
      bin: none
Per MPI rank memory allocation (min/avg/max) = 19.74 | 19.74 | 19.74 Mbytes
Step PotEng KinEng TotEng Temp Volume 
       0 -2.8381206e-07 4.7806401e-08 -2.3600566e-07      1160000        8e-24 
      20 -2.8375555e-07 4.7749911e-08 -2.3600564e-07    1158629.3        8e-24 
      40 -2.8377118e-07 4.7765517e-08 -2.3600566e-07      1159008        8e-24 
      60 -2.8376455e-07 4.7758872e-08 -2.3600568e-07    1158846.7        8e-24 
      80 -2.8363192e-07 4.7626247e-08 -2.3600567e-07    1155628.6        8e-24 
     100 -2.8339382e-07 4.7388166e-08 -2.3600565e-07    1149851.7        8e-24 
     120 -2.8313421e-07 4.7128576e-08 -2.3600564e-07    1143552.9        8e-24 
     140 -2.8292767e-07 4.6922038e-08 -2.3600564e-07    1138541.3        8e-24 
     160 -2.8279892e-07 4.6793277e-08 -2.3600564e-07      1135417        8e-24 
     180 -2.8272824e-07 4.6722594e-08 -2.3600565e-07    1133701.9        8e-24 
     200 -2.8267859e-07 4.667293e-08 -2.3600566e-07    1132496.9        8e-24 
     220 -2.8260286e-07 4.6597189e-08 -2.3600567e-07      1130659        8e-24 
     240 -2.825353e-07 4.6529735e-08 -2.3600557e-07    1129022.3        8e-24 
     260 -2.8277734e-07 4.6771694e-08 -2.3600564e-07    1134893.3        8e-24 
     280 -2.8314599e-07 4.7140343e-08 -2.3600565e-07    1143838.4        8e-24 
     300 -2.83555e-07 4.7549335e-08 -2.3600566e-07    1153762.4        8e-24 
     320 -2.839224e-07 4.7916729e-08 -2.3600567e-07    1162677.1        8e-24 
     340 -2.8418131e-07 4.8175641e-08 -2.3600567e-07    1168959.4        8e-24 
     360 -2.843107e-07 4.8305026e-08 -2.3600567e-07    1172098.9        8e-24 
     380 -2.8430276e-07 4.8297077e-08 -2.3600568e-07      1171906        8e-24 
     400 -2.8412722e-07 4.8121547e-08 -2.3600568e-07    1167646.9        8e-24 
     420 -2.8379522e-07 4.7789558e-08 -2.3600567e-07    1159591.3        8e-24 
     440 -2.8335612e-07 4.7350461e-08 -2.3600566e-07    1148936.8        8e-24 
     460 -2.8284755e-07 4.6841888e-08 -2.3600566e-07    1136596.6        8e-24 
     480 -2.8227968e-07 4.6274022e-08 -2.3600566e-07    1122817.6        8e-24 
     500 -2.8164958e-07 4.5643906e-08 -2.3600567e-07    1107528.1        8e-24 
     520 -2.8097764e-07 4.497204e-08 -2.360056e-07    1091225.6        8e-24 
     540 -2.8065185e-07 4.4646225e-08 -2.3600563e-07    1083319.8        8e-24 
     560 -2.8062329e-07 4.4617651e-08 -2.3600563e-07    1082626.5        8e-24 
     580 -2.807257e-07 4.4720085e-08 -2.3600562e-07      1085112        8e-24 
     600 -2.8101172e-07 4.5006093e-08 -2.3600563e-07    1092051.8        8e-24 
     620 -2.8140321e-07 4.5397557e-08 -2.3600565e-07    1101550.5        8e-24 
     640 -2.8177835e-07 4.5772681e-08 -2.3600567e-07    1110652.8        8e-24 
     660 -2.8205318e-07 4.6047505e-08 -2.3600568e-07    1117321.2        8e-24 
     680 -2.8218249e-07 4.6176813e-08 -2.3600568e-07    1120458.8        8e-24 
     700 -2.8215202e-07 4.6146342e-08 -2.3600568e-07    1119719.5        8e-24 
     720 -2.8198322e-07 4.5977552e-08 -2.3600567e-07    1115623.8        8e-24 
     740 -2.817346e-07 4.5728941e-08 -2.3600566e-07    1109591.4        8e-24 
     760 -2.8148051e-07 4.5474861e-08 -2.3600565e-07    1103426.3        8e-24 
     780 -2.8129746e-07 4.5291828e-08 -2.3600563e-07    1098985.1        8e-24 
     800 -2.8124934e-07 4.5243709e-08 -2.3600563e-07    1097817.5        8e-24 
     820 -2.813202e-07 4.5314546e-08 -2.3600565e-07    1099536.3        8e-24 
     840 -2.8141507e-07 4.5409411e-08 -2.3600566e-07    1101838.2        8e-24 
     860 -2.814801e-07 4.5474438e-08 -2.3600566e-07      1103416        8e-24 
     880 -2.8151626e-07 4.5510602e-08 -2.3600566e-07    1104293.5        8e-24 
     900 -2.8154296e-07 4.553731e-08 -2.3600565e-07    1104941.6        8e-24 
     920 -2.8159134e-07 4.5585695e-08 -2.3600564e-07    1106115.6        8e-24 
     940 -2.8170355e-07 4.5697894e-08 -2.3600565e-07    1108838.1        8e-24 
     960 -2.8182849e-07 4.5822819e-08 -2.3600567e-07    1111869.3        8e-24 
     980 -2.8186799e-07 4.5862315e-08 -2.3600567e-07    1112827.7        8e-24 
    1000 -2.8180202e-07 4.579636e-08 -2.3600566e-07    1111227.3        8e-24 
    1020 -2.8168887e-07 4.5683237e-08 -2.3600564e-07    1108482.4        8e-24 
    1040 -2.8162285e-07 4.5617214e-08 -2.3600564e-07    1106880.4        8e-24 
    1060 -2.8163028e-07 4.5624639e-08 -2.3600564e-07    1107060.6        8e-24 
    1080 -2.8169514e-07 4.5689496e-08 -2.3600564e-07    1108634.3        8e-24 
    1100 -2.8183008e-07 4.5824443e-08 -2.3600564e-07    1111908.7        8e-24 
    1120 -2.8204173e-07 4.6036077e-08 -2.3600565e-07    1117043.9        8e-24 
    1140 -2.8228292e-07 4.6277276e-08 -2.3600565e-07    1122896.5        8e-24 
    1160 -2.8256729e-07 4.6561659e-08 -2.3600564e-07    1129796.9        8e-24 
    1180 -2.8293226e-07 4.6926619e-08 -2.3600564e-07    1138652.5        8e-24 
    1200 -2.8334698e-07 4.7341334e-08 -2.3600565e-07    1148715.4        8e-24 
    1220 -2.8376138e-07 4.7755719e-08 -2.3600566e-07    1158770.2        8e-24 
    1240 -2.84119e-07 4.8113324e-08 -2.3600567e-07    1167447.3        8e-24 
    1260 -2.8435894e-07 4.8353265e-08 -2.3600568e-07    1173269.4        8e-24 
    1280 -2.844566e-07 4.8450926e-08 -2.3600567e-07    1175639.1        8e-24 
    1300 -2.8443875e-07 4.8433083e-08 -2.3600567e-07    1175206.2        8e-24 
    1320 -2.8432231e-07 4.8316623e-08 -2.3600568e-07    1172380.3        8e-24 
    1340 -2.8408836e-07 4.8082735e-08 -2.3600563e-07    1166705.1        8e-24 
    1360 -2.8407075e-07 4.8065107e-08 -2.3600564e-07    1166277.4        8e-24 
    1380 -2.8423748e-07 4.8231794e-08 -2.3600569e-07      1170322        8e-24 
    1400 -2.8424536e-07 4.823968e-08 -2.3600568e-07    1170513.3        8e-24 
    1420 -2.8410395e-07 4.8098286e-08 -2.3600566e-07    1167082.5        8e-24 
    1440 -2.8391115e-07 4.7905496e-08 -2.3600565e-07    1162404.5        8e-24 
    1460 -2.8370019e-07 4.7694521e-08 -2.3600566e-07    1157285.3        8e-24 
    1480 -2.8343239e-07 4.742675e-08 -2.3600564e-07      1150788        8e-24 
    1500 -2.8319585e-07 4.719022e-08 -2.3600563e-07    1145048.7        8e-24 
    1520 -2.8303909e-07 4.7033442e-08 -2.3600564e-07    1141244.5        8e-24 
    1540 -2.8290915e-07 4.6903505e-08 -2.3600564e-07    1138091.7        8e-24 
    1560 -2.8279792e-07 4.6792276e-08 -2.3600564e-07    1135392.7        8e-24 
    1580 -2.8271383e-07 4.6708191e-08 -2.3600564e-07    1133352.5        8e-24 
    1600 -2.8265054e-07 4.6644897e-08 -2.3600565e-07    1131816.6        8e-24 
    1620 -2.8259306e-07 4.6587416e-08 -2.3600564e-07    1130421.9        8e-24 
    1640 -2.8256208e-07 4.6556445e-08 -2.3600563e-07    1129670.4        8e-24 
    1660 -2.826137e-07 4.6608077e-08 -2.3600562e-07    1130923.2        8e-24 
    1680 -2.827941e-07 4.6788484e-08 -2.3600562e-07    1135300.7        8e-24 
    1700 -2.8308384e-07 4.7078191e-08 -2.3600564e-07    1142330.3        8e-24 
    1720 -2.8338289e-07 4.7377243e-08 -2.3600565e-07    1149586.7        8e-24 
    1740 -2.8365127e-07 4.7645622e-08 -2.3600565e-07    1156098.8        8e-24 
    1760 -2.8386198e-07 4.7856321e-08 -2.3600566e-07    1161211.3        8e-24 
    1780 -2.8398711e-07 4.7981445e-08 -2.3600566e-07    1164247.4        8e-24 
    1800 -2.8398886e-07 4.7983185e-08 -2.3600567e-07    1164289.6        8e-24 
    1820 -2.8385602e-07 4.7850371e-08 -2.3600565e-07    1161066.9        8e-24 
    1840 -2.8372101e-07 4.7715379e-08 -2.3600563e-07    1157791.4        8e-24 
    1860 -2.8366035e-07 4.7654694e-08 -2.3600565e-07    1156318.9        8e-24 
    1880 -2.8359399e-07 4.7588344e-08 -2.3600564e-07    1154708.9        8e-24 
    1900 -2.8353776e-07 4.753212e-08 -2.3600564e-07    1153344.7        8e-24 
    1920 -2.8350972e-07 4.7504084e-08 -2.3600564e-07    1152664.4        8e-24 
    1940 -2.8350926e-07 4.750361e-08 -2.3600565e-07    1152652.9        8e-24 
    1960 -2.8350039e-07 4.749474e-08 -2.3600565e-07    1152437.7        8e-24 
    1980 -2.8344467e-07 4.7439012e-08 -2.3600565e-07    1151085.5        8e-24 
    2000 -2.8333934e-07 4.7333688e-08 -2.3600566e-07    1148529.9        8e-24 
Loop time of 8.5631 on 1 procs for 2000 steps with 200 atoms

100.0% CPU use with 1 MPI tasks x no OpenMP threads

MPI task timing breakdown:
Section |  min time  |  avg time  |  max time  |%varavg| %total
---------------------------------------------------------------
Pair    | 1.2747     | 1.2747     | 1.2747     |   0.0 | 14.89
Kspace  | 7.1067     | 7.1067     | 7.1067     |   0.0 | 82.99
Neigh   | 0.041617   | 0.041617   | 0.041617   |   0.0 |  0.49
Comm    | 0.027548   | 0.027548   | 0.027548   |   0.0 |  0.32
Output  | 0.0017347  | 0.0017347  | 0.0017347  |   0.0 |  0.02
Modify  | 0.10367    | 0.10367    | 0.10367    |   0.0 |  1.21
Other   |            | 0.007185   |            |       |  0.08

Nlocal:        200.000 ave         200 max         200 min
Histogram: 1 0 0 0 0 0 0 0 0 0
Nghost:        1651.00 ave        1651 max        1651 min
Histogram: 1 0 0 0 0 0 0 0 0 0
Neighs:        13794.0 ave       13794 max       13794 min
Histogram: 1 0 0 0 0 0 0 0 0 0

Total # of neighbors = 13794
Ave neighs/atom = 68.970000
Neighbor list builds = 69
Dangerous builds = 0
                                                                      