LAMMPS (27 May 2021)
# Jun 08 2019
# Author: Abdourahmane Diaw (diaw@radiasoft.net)
# LAMMPS script for radial distribution function of a binary plasma.
# Physical conditions considered: Carbon and Hydrogen
# total density 1e25 cc, T=100 eV, concentration at 50%.
# Fix ave/time to compute RDF


echo both

#############  begin parameters ################################
# All quantities are in cgs units


variable Temp     equal 100.*11600
variable ZH       equal 1.0
variable ZC       equal 6.0

# Plasma parameters

variable       Npart        equal   1000 # ------> change this to 2000 to get less noisy results
variable       xlen         equal   2e-08
variable       gdis         equal   ${xlen}/160
variable       gdis         equal   2e-08/160
variable       prcoeff      equal   2.306881e-19
variable       charge_H     equal   4.803000e-10*${ZH}
variable       charge_H     equal   4.803000e-10*1
variable       charge_C     equal   4.803000e-10*${ZC}
variable       charge_C     equal   4.803000e-10*6
variable       Imas_H       equal   1.*1.660000e-24
variable       Imas_C       equal   12.*1.660000e-24

# Runtime

variable teq   equal 2000       # equilibration time
variable trun  equal 2000       # production time  ------> change this to 200000 to get less noisy results

variable d     equal floor(${trun}/100) # dump time
variable d     equal floor(2000/100) 
variable freq  equal floor(${trun}/10) # production run
variable freq  equal floor(2000/10) 

# MD setup

units             cgs
atom_style        charge
newton            on
dimension         3
boundary          p p p

lattice          sc ${gdis}
lattice          sc 1.25e-10
Lattice spacing in x,y,z = 1.2500000e-10 1.2500000e-10 1.2500000e-10
region           simbox block 0 ${xlen} 0 ${xlen} 0 ${xlen} units box
region           simbox block 0 2e-08 0 ${xlen} 0 ${xlen} units box
region           simbox block 0 2e-08 0 2e-08 0 ${xlen} units box
region           simbox block 0 2e-08 0 2e-08 0 2e-08 units box
create_box    2  simbox
Created orthogonal box = (0.0000000 0.0000000 0.0000000) to (2.0000000e-08 2.0000000e-08 2.0000000e-08)
  1 by 1 by 1 MPI processor grid

create_atoms    1 random ${Npart}  257349 simbox
create_atoms    1 random 1000  257349 simbox
Created 1000 atoms
  create_atoms CPU = 0.001 seconds
create_atoms    2 random ${Npart}  157349 simbox
create_atoms    2 random 1000  157349 simbox
Created 1000 atoms
  create_atoms CPU = 0.000 seconds

group atom1 type 1
1000 atoms in group atom1
group atom2 type 2
1000 atoms in group atom2

# Charges and masses of species

set    type 1 charge  ${charge_H}
set    type 1 charge  4.803e-10
Setting atom values ...
  1000 settings made for charge
set    type 2 charge  ${charge_C}
set    type 2 charge  2.8818e-09
Setting atom values ...
  1000 settings made for charge

mass        1 ${Imas_H}
mass        1 1.66e-24
mass        2 ${Imas_C}
mass        2 1.992e-23

# Params

variable       dens      equal     count(all)/vol
variable       rc        equal     lx/2
variable       dbin      equal     0.1*${rc}
variable       dbin      equal     0.1*1e-08
variable       wp        equal     1.2e3*sqrt(${dens})
variable       wp        equal     1.2e3*sqrt(2.5e+26)
variable       dtstep    equal     1.0/(300.*${wp})
variable       dtstep    equal     1.0/(300.*1.89736659610103e+16)
variable       Tdamp     equal     1e2*${dtstep}
variable       Tdamp     equal     1e2*1.75682092231576e-19


# Define interactions here

pair_style      coul/long     ${rc}
pair_style      coul/long     1e-08
pair_coeff      *   *

neighbor         ${dbin}       bin
neighbor         1e-09       bin
neigh_modify     every         1 delay 0  check yes page 50000 one 5000
pair_modify      table         0
kspace_style     ewald      1e-4


timestep          ${dtstep}
timestep          1.75682092231576e-19

# Initial velocities and thermostats

velocity         all create ${Temp} 102486 dist gaussian units box
velocity         all create 1160000 102486 dist gaussian units box

fix             nvtid all nvt temp ${Temp} ${Temp} ${Tdamp}
fix             nvtid all nvt temp 1160000 ${Temp} ${Tdamp}
fix             nvtid all nvt temp 1160000 1160000 ${Tdamp}
fix             nvtid all nvt temp 1160000 1160000 1.75682092231576e-17

thermo            $d
thermo            20
thermo_style      custom step pe ke etotal temp vol
thermo_modify     flush yes

run      ${teq}
run      2000
Ewald initialization ...
  using polynomial approximation for long-range coulomb (../kspace.cpp:342)
  G vector (1/distance) = 3.947392e+08
  estimated absolute RMS force accuracy = 2.9163296e-07
  estimated relative force accuracy = 0.00012640797
  KSpace vectors: actual max1d max3d = 2084 10 4630
                  kxmax kymax kzmax  = 10 10 10
Neighbor list info ...
  update every 1 steps, delay 0 steps, check yes
  max neighbors/atom: 5000, page size: 50000
  master list distance cutoff = 1.1e-08
  ghost atom cutoff = 1.1e-08
  binsize = 5.5e-09, bins = 4 4 4
  1 neighbor lists, perpetual/occasional/extra = 1 0 0
  (1) pair coul/long, perpetual
      attributes: half, newton on
      pair build: half/bin/atomonly/newton
      stencil: half/bin/3d
      bin: standard
Per MPI rank memory allocation (min/avg/max) = 44.85 | 44.85 | 44.85 Mbytes
Step PotEng KinEng TotEng Temp Volume 
       0 -1.0408791e-07 4.8022611e-07 3.761382e-07      1160000        8e-24 
      20 -3.4545604e-07 7.1664588e-07 3.7118984e-07    1731078.8        8e-24 
      40 -7.3739401e-07 1.0741894e-06 3.367954e-07    2594735.5        8e-24 
      60 -1.2220898e-06 1.4839427e-06 2.6185296e-07    3584506.4        8e-24 
      80 -1.7496209e-06 1.860158e-06 1.1053712e-07    4493265.2        8e-24 
     100 -2.2848525e-06 2.1608423e-06 -1.240102e-07    5219576.8        8e-24 
     120 -2.8033476e-06 2.3658242e-06 -4.3752337e-07    5714716.6        8e-24 
     140 -3.28897e-06 2.4745341e-06 -8.1443584e-07    5977308.5        8e-24 
     160 -3.732172e-06 2.498629e-06 -1.233543e-06    6035510.3        8e-24 
     180 -4.1281962e-06 2.4552119e-06 -1.6729843e-06    5930635.2        8e-24 
     200 -4.47562e-06 2.3621818e-06 -2.1134382e-06    5705918.3        8e-24 
     220 -4.7760665e-06 2.2362663e-06 -2.5398002e-06    5401765.8        8e-24 
     240 -5.0329516e-06 2.0913788e-06 -2.9415728e-06    5051785.8        8e-24 
     260 -5.2502066e-06 1.9378446e-06 -3.312362e-06    4680919.4        8e-24 
     280 -5.4319437e-06 1.7829586e-06 -3.6489851e-06    4306787.8        8e-24 
     300 -5.5818862e-06 1.6313162e-06 -3.95057e-06    3940491.3        8e-24 
     320 -5.7036701e-06 1.4859026e-06 -4.2177675e-06    3589240.4        8e-24 
     340 -5.8010409e-06 1.3487809e-06 -4.45226e-06    3258019.1        8e-24 
     360 -5.8772827e-06 1.220932e-06 -4.6563507e-06    2949196.4        8e-24 
     380 -5.9354857e-06 1.1028495e-06 -4.8326362e-06    2663964.7        8e-24 
     400 -5.9786862e-06 9.9484677e-07 -4.9838395e-06      2403081        8e-24 
     420 -6.0097139e-06 8.9701812e-07 -5.1126958e-06    2166773.1        8e-24 
     440 -6.0310772e-06 8.0922465e-07 -5.2218526e-06    1954705.5        8e-24 
     460 -6.0449114e-06 7.3112139e-07 -5.31379e-06    1766044.8        8e-24 
     480 -6.0530173e-06 6.6225011e-07 -5.3907672e-06    1599684.2        8e-24 
     500 -6.0569496e-06 6.0215088e-07 -5.4547988e-06    1454512.8        8e-24 
     520 -6.0580392e-06 5.5038892e-07 -5.5076503e-06    1329480.3        8e-24 
     540 -6.0573916e-06 5.0655466e-07 -5.550837e-06    1223597.4        8e-24 
     560 -6.0559382e-06 4.7031313e-07 -5.585625e-06    1136054.9        8e-24 
     580 -6.0544852e-06 4.4144887e-07 -5.6130364e-06    1066332.5        8e-24 
     600 -6.0537403e-06 4.1988571e-07 -5.6338546e-06      1014246        8e-24 
     620 -6.054318e-06 4.056844e-07 -5.6486336e-06    979942.36        8e-24 
     640 -6.0567005e-06 3.9898141e-07 -5.6577191e-06    963751.09        8e-24 
     660 -6.0611878e-06 3.9988127e-07 -5.6613066e-06    965924.73        8e-24 
     680 -6.0679299e-06 4.0836218e-07 -5.6595677e-06    986410.62        8e-24 
     700 -6.0769758e-06 4.2411751e-07 -5.6528583e-06    1024468.1        8e-24 
     720 -6.0882548e-06 4.4630375e-07 -5.641951e-06    1078059.6        8e-24 
     740 -6.1015447e-06 4.7335771e-07 -5.628187e-06    1143409.2        8e-24 
     760 -6.1164841e-06 5.0300048e-07 -5.6134836e-06    1215012.2        8e-24 
     780 -6.1325841e-06 5.3234211e-07 -5.600242e-06    1285887.7        8e-24 
     800 -6.1492614e-06 5.5806737e-07 -5.591194e-06    1348027.8        8e-24 
     820 -6.1658892e-06 5.7677211e-07 -5.5891171e-06    1393209.7        8e-24 
     840 -6.1818609e-06 5.8561006e-07 -5.5962508e-06      1414558        8e-24 
     860 -6.1966996e-06 5.8332116e-07 -5.6133784e-06    1409029.1        8e-24 
     880 -6.2101168e-06 5.7103388e-07 -5.639083e-06    1379348.8        8e-24 
     900 -6.222012e-06 5.5189602e-07 -5.670116e-06    1333120.7        8e-24 
     920 -6.2324373e-06 5.2958101e-07 -5.7028563e-06    1279218.2        8e-24 
     940 -6.2415154e-06 5.0697554e-07 -5.7345398e-06      1224614        8e-24 
     960 -6.2493587e-06 4.8583543e-07 -5.7635233e-06    1173549.5        8e-24 
     980 -6.2560182e-06 4.6703695e-07 -5.7889813e-06    1128141.2        8e-24 
    1000 -6.2614789e-06 4.5093632e-07 -5.8105426e-06    1089249.7        8e-24 
    1020 -6.265704e-06 4.3766266e-07 -5.8280414e-06    1057186.8        8e-24 
    1040 -6.2686745e-06 4.2729583e-07 -5.8413787e-06    1032145.4        8e-24 
    1060 -6.2703956e-06 4.1993828e-07 -5.8504574e-06      1014373        8e-24 
    1080 -6.2708979e-06 4.1573385e-07 -5.8551641e-06    1004217.1        8e-24 
    1100 -6.2702536e-06 4.1485992e-07 -5.8553936e-06    1002106.1        8e-24 
    1120 -6.2685951e-06 4.1747947e-07 -5.8511157e-06    1008433.7        8e-24 
    1140 -6.2660881e-06 4.236136e-07 -5.8424745e-06    1023250.9        8e-24 
    1160 -6.2628074e-06 4.3292217e-07 -5.8298853e-06      1045736        8e-24 
    1180 -6.2587423e-06 4.4467509e-07 -5.8140672e-06    1074125.5        8e-24 
    1200 -6.2539374e-06 4.5795863e-07 -5.7959788e-06    1106212.3        8e-24 
    1220 -6.2485355e-06 4.7184127e-07 -5.7766942e-06    1139746.2        8e-24 
    1240 -6.2427649e-06 4.8547575e-07 -5.7572892e-06    1172680.7        8e-24 
    1260 -6.2369367e-06 4.9816274e-07 -5.738774e-06    1203326.5        8e-24 
    1280 -6.231411e-06 5.0934319e-07 -5.7220679e-06    1230333.1        8e-24 
    1300 -6.2264483e-06 5.1845554e-07 -5.7079928e-06    1252344.3        8e-24 
    1320 -6.2221035e-06 5.2484657e-07 -5.6972569e-06      1267782        8e-24 
    1340 -6.218353e-06 5.2795279e-07 -5.6904002e-06    1275285.2        8e-24 
    1360 -6.215333e-06 5.2762159e-07 -5.6877114e-06    1274485.2        8e-24 
    1380 -6.2130624e-06 5.2390275e-07 -5.6891596e-06    1265502.2        8e-24 
    1400 -6.211531e-06 5.1717635e-07 -5.6943547e-06    1249254.4        8e-24 
    1420 -6.2108672e-06 5.0829205e-07 -5.7025751e-06    1227794.1        8e-24 
    1440 -6.2115437e-06 4.9865008e-07 -5.7128936e-06    1204503.6        8e-24 
    1460 -6.213696e-06 4.8933026e-07 -5.7243657e-06    1181991.4        8e-24 
    1480 -6.2169472e-06 4.8079244e-07 -5.7361547e-06      1161368        8e-24 
    1500 -6.2211594e-06 4.7357702e-07 -5.7475824e-06    1143938.9        8e-24 
    1520 -6.2263687e-06 4.6821496e-07 -5.7581537e-06    1130986.7        8e-24 
    1540 -6.2326027e-06 4.6504213e-07 -5.7675606e-06    1123322.7        8e-24 
    1560 -6.2396137e-06 4.639509e-07 -5.7756628e-06    1120686.8        8e-24 
    1580 -6.2469918e-06 4.6453924e-07 -5.7824526e-06    1122107.9        8e-24 
    1600 -6.2542847e-06 4.6626669e-07 -5.788018e-06    1126280.6        8e-24 
    1620 -6.2610706e-06 4.6856205e-07 -5.7925085e-06    1131825.1        8e-24 
    1640 -6.267029e-06 4.709265e-07 -5.7961025e-06    1137536.5        8e-24 
    1660 -6.2719768e-06 4.7299886e-07 -5.798978e-06    1142542.4        8e-24 
    1680 -6.2758836e-06 4.7459283e-07 -5.8012907e-06    1146392.7        8e-24 
    1700 -6.2787766e-06 4.7561575e-07 -5.8031609e-06    1148863.5        8e-24 
    1720 -6.2805577e-06 4.7589361e-07 -5.804664e-06    1149534.7        8e-24 
    1740 -6.2812494e-06 4.7543026e-07 -5.8058191e-06    1148415.5        8e-24 
    1760 -6.2811976e-06 4.7460556e-07 -5.806592e-06    1146423.4        8e-24 
    1780 -6.2802781e-06 4.7336122e-07 -5.8069169e-06    1143417.7        8e-24 
    1800 -6.2784699e-06 4.7177186e-07 -5.8066981e-06    1139578.5        8e-24 
    1820 -6.2761584e-06 4.703413e-07 -5.8058171e-06      1136123        8e-24 
    1840 -6.2736245e-06 4.6945686e-07 -5.8041677e-06    1133986.6        8e-24 
    1860 -6.2707294e-06 4.6904843e-07 -5.801681e-06      1133000        8e-24 
    1880 -6.2679686e-06 4.696406e-07 -5.798328e-06    1134430.4        8e-24 
    1900 -6.2658371e-06 4.7168628e-07 -5.7941509e-06    1139371.8        8e-24 
    1920 -6.264187e-06 4.7489207e-07 -5.7892949e-06    1147115.5        8e-24 
    1940 -6.2628323e-06 4.7883315e-07 -5.7839991e-06    1156635.3        8e-24 
    1960 -6.2617745e-06 4.832071e-07 -5.7785674e-06    1167200.7        8e-24 
    1980 -6.2610997e-06 4.8775363e-07 -5.773346e-06    1178182.9        8e-24 
    2000 -6.2608363e-06 4.9213268e-07 -5.7687037e-06    1188760.7        8e-24 
Loop time of 202.518 on 1 procs for 2000 steps with 2000 atoms

99.9% CPU use with 1 MPI tasks x no OpenMP threads

MPI task timing breakdown:
Section |  min time  |  avg time  |  max time  |%varavg| %total
---------------------------------------------------------------
Pair    | 127.02     | 127.02     | 127.02     |   0.0 | 62.72
Kspace  | 73.149     | 73.149     | 73.149     |   0.0 | 36.12
Neigh   | 1.8649     | 1.8649     | 1.8649     |   0.0 |  0.92
Comm    | 0.30835    | 0.30835    | 0.30835    |   0.0 |  0.15
Output  | 0.0080781  | 0.0080781  | 0.0080781  |   0.0 |  0.00
Modify  | 0.11184    | 0.11184    | 0.11184    |   0.0 |  0.06
Other   |            | 0.05753    |            |       |  0.03

Nlocal:        2000.00 ave        2000 max        2000 min
Histogram: 1 0 0 0 0 0 0 0 0 0
Nghost:        16686.0 ave       16686 max       16686 min
Histogram: 1 0 0 0 0 0 0 0 0 0
Neighs:    1.39239e+06 ave 1.39239e+06 max 1.39239e+06 min
Histogram: 1 0 0 0 0 0 0 0 0 0

Total # of neighbors = 1392389
Ave neighs/atom = 696.19450
Neighbor list builds = 38
Dangerous builds = 0

unfix                   nvtid

velocity all scale ${Temp}
velocity all scale 1160000

reset_timestep          0

fix         nveid         all     nve


variable fileTag string gofr_BIM_CH.csv


compute     myRDF330 all rdf 1024  1 1 1 2 2 2
fix         rdfid330 all ave/time 1 ${freq} ${trun} c_myRDF330[1] c_myRDF330[2]  c_myRDF330[4] c_myRDF330[6] file ${fileTag} mode vector
fix         rdfid330 all ave/time 1 200 ${trun} c_myRDF330[1] c_myRDF330[2]  c_myRDF330[4] c_myRDF330[6] file ${fileTag} mode vector
fix         rdfid330 all ave/time 1 200 2000 c_myRDF330[1] c_myRDF330[2]  c_myRDF330[4] c_myRDF330[6] file ${fileTag} mode vector
fix         rdfid330 all ave/time 1 200 2000 c_myRDF330[1] c_myRDF330[2]  c_myRDF330[4] c_myRDF330[6] file gofr_BIM_CH.csv mode vector

thermo            $d
thermo            20
thermo_style      custom step pe ke etotal temp vol
WARNING: New thermo_style command, previous thermo_modify settings will be lost (../output.cpp:689)

variable T_eV equal ${Temp}/11600.
variable T_eV equal 1160000/11600.
run      ${trun}
run      2000
Ewald initialization ...
  using polynomial approximation for long-range coulomb (../kspace.cpp:342)
  G vector (1/distance) = 3.947392e+08
  estimated absolute RMS force accuracy = 2.9163296e-07
  estimated relative force accuracy = 0.00012640797
  KSpace vectors: actual max1d max3d = 2084 10 4630
                  kxmax kymax kzmax  = 10 10 10
Neighbor list info ...
  update every 1 steps, delay 0 steps, check yes
  max neighbors/atom: 5000, page size: 50000
  master list distance cutoff = 1.1e-08
  ghost atom cutoff = 1.1e-08
  binsize = 5.5e-09, bins = 4 4 4
  2 neighbor lists, perpetual/occasional/extra = 1 1 0
  (1) pair coul/long, perpetual
      attributes: half, newton on
      pair build: half/bin/atomonly/newton
      stencil: half/bin/3d
      bin: standard
  (2) compute rdf, occasional, copy from (1)
      attributes: half, newton on
      pair build: copy
      stencil: none
      bin: none
Per MPI rank memory allocation (min/avg/max) = 45.11 | 45.11 | 45.11 Mbytes
Step PotEng KinEng TotEng Temp Volume 
       0 -6.2608363e-06 4.8022611e-07 -5.7806102e-06      1160000        8e-24 
      20 -6.2609646e-06 4.8035435e-07 -5.7806102e-06    1160309.8        8e-24 
      40 -6.2614914e-06 4.808812e-07 -5.7806102e-06    1161582.4        8e-24 
      60 -6.262352e-06 4.8174172e-07 -5.7806103e-06      1163661        8e-24 
      80 -6.263315e-06 4.8270475e-07 -5.7806103e-06    1165987.2        8e-24 
     100 -6.26432e-06 4.8370975e-07 -5.7806103e-06    1168414.9        8e-24 
     120 -6.265454e-06 4.8484369e-07 -5.7806103e-06    1171153.9        8e-24 
     140 -6.2667894e-06 4.8617916e-07 -5.7806103e-06    1174379.8        8e-24 
     160 -6.268323e-06 4.877127e-07 -5.7806103e-06    1178084.1        8e-24 
     180 -6.2700346e-06 4.8942433e-07 -5.7806103e-06    1182218.6        8e-24 
     200 -6.2718868e-06 4.9127644e-07 -5.7806103e-06    1186692.4        8e-24 
     220 -6.2735255e-06 4.9291509e-07 -5.7806104e-06    1190650.6        8e-24 
     240 -6.2745945e-06 4.9398409e-07 -5.7806104e-06    1193232.8        8e-24 
     260 -6.2749805e-06 4.9437012e-07 -5.7806104e-06    1194165.3        8e-24 
     280 -6.2746821e-06 4.9407163e-07 -5.7806104e-06    1193444.3        8e-24 
     300 -6.2737405e-06 4.9313011e-07 -5.7806104e-06      1191170        8e-24 
     320 -6.2721663e-06 4.9155585e-07 -5.7806104e-06    1187367.3        8e-24 
     340 -6.2700568e-06 4.8944644e-07 -5.7806104e-06      1182272        8e-24 
     360 -6.2676616e-06 4.8705121e-07 -5.7806104e-06    1176486.2        8e-24 
     380 -6.2650891e-06 4.8447881e-07 -5.7806103e-06    1170272.5        8e-24 
     400 -6.2626343e-06 4.8202399e-07 -5.7806103e-06    1164342.8        8e-24 
     420 -6.2603823e-06 4.7977197e-07 -5.7806103e-06      1158903        8e-24 
     440 -6.2583482e-06 4.7773789e-07 -5.7806103e-06    1153989.6        8e-24 
     460 -6.2567864e-06 4.7617606e-07 -5.7806103e-06      1150217        8e-24 
     480 -6.2555006e-06 4.7489024e-07 -5.7806104e-06    1147111.1        8e-24 
     500 -6.2542924e-06 4.7368203e-07 -5.7806103e-06    1144192.6        8e-24 
     520 -6.2531972e-06 4.7258686e-07 -5.7806103e-06    1141547.2        8e-24 
     540 -6.2524184e-06 4.7180814e-07 -5.7806103e-06    1139666.1        8e-24 
     560 -6.2522204e-06 4.7161012e-07 -5.7806102e-06    1139187.8        8e-24 
     580 -6.2526635e-06 4.720533e-07 -5.7806102e-06    1140258.4        8e-24 
     600 -6.2537595e-06 4.7314925e-07 -5.7806102e-06    1142905.7        8e-24 
     620 -6.2554763e-06  4.74866e-07 -5.7806103e-06    1147052.5        8e-24 
     640 -6.2576292e-06 4.7701895e-07 -5.7806103e-06      1152253        8e-24 
     660 -6.2599384e-06 4.7932805e-07 -5.7806103e-06    1157830.7        8e-24 
     680 -6.2621663e-06 4.8155595e-07 -5.7806104e-06    1163212.3        8e-24 
     700 -6.264201e-06 4.8359061e-07 -5.7806103e-06      1168127        8e-24 
     720 -6.266063e-06 4.8545272e-07 -5.7806103e-06      1172625        8e-24 
     740 -6.2679168e-06 4.873065e-07 -5.7806103e-06    1177102.9        8e-24 
     760 -6.2699715e-06 4.8936125e-07 -5.7806103e-06    1182066.2        8e-24 
     780 -6.272157e-06 4.9154669e-07 -5.7806103e-06    1187345.2        8e-24 
     800 -6.2742421e-06 4.9363173e-07 -5.7806104e-06    1192381.7        8e-24 
     820 -6.27604e-06 4.954296e-07 -5.7806104e-06    1196724.5        8e-24 
     840 -6.2774769e-06 4.9686653e-07 -5.7806104e-06    1200195.4        8e-24 
     860 -6.2784888e-06 4.9787841e-07 -5.7806104e-06    1202639.6        8e-24 
     880 -6.2789585e-06 4.9834808e-07 -5.7806104e-06    1203774.2        8e-24 
     900 -6.2787406e-06 4.9813013e-07 -5.7806105e-06    1203247.7        8e-24 
     920 -6.2777035e-06 4.9709302e-07 -5.7806105e-06    1200742.5        8e-24 
     940 -6.2758051e-06 4.9519465e-07 -5.7806105e-06    1196156.9        8e-24 
     960 -6.2730957e-06 4.9248524e-07 -5.7806105e-06    1189612.3        8e-24 
     980 -6.2696949e-06 4.8908449e-07 -5.7806104e-06    1181397.7        8e-24 
    1000 -6.2658382e-06 4.8522782e-07 -5.7806104e-06    1172081.8        8e-24 
    1020 -6.2618877e-06 4.8127736e-07 -5.7806103e-06    1162539.3        8e-24 
    1040 -6.2581207e-06 4.7751043e-07 -5.7806103e-06    1153440.2        8e-24 
    1060 -6.2546089e-06 4.7399862e-07 -5.7806103e-06    1144957.3        8e-24 
    1080 -6.2515255e-06 4.7091525e-07 -5.7806102e-06    1137509.4        8e-24 
    1100 -6.2491771e-06 4.6856687e-07 -5.7806102e-06    1131836.8        8e-24 
    1120 -6.2476527e-06 4.6704251e-07 -5.7806102e-06    1128154.6        8e-24 
    1140 -6.2468664e-06 4.6625621e-07 -5.7806102e-06    1126255.3        8e-24 
    1160 -6.2468226e-06 4.6621233e-07 -5.7806102e-06    1126149.3        8e-24 
    1180 -6.2475368e-06 4.6692655e-07 -5.7806102e-06    1127874.5        8e-24 
    1200 -6.248933e-06 4.6832271e-07 -5.7806103e-06      1131247        8e-24 
    1220 -6.2509035e-06 4.7029326e-07 -5.7806103e-06    1136006.9        8e-24 
    1240 -6.2534091e-06 4.7279884e-07 -5.7806103e-06    1142059.2        8e-24 
    1260 -6.2564271e-06 4.7581683e-07 -5.7806103e-06    1149349.3        8e-24 
    1280 -6.2598264e-06 4.7921609e-07 -5.7806103e-06    1157560.3        8e-24 
    1300 -6.2633939e-06 4.8278359e-07 -5.7806103e-06    1166177.7        8e-24 
    1320 -6.266947e-06 4.8633659e-07 -5.7806104e-06    1174760.1        8e-24 
    1340 -6.2702841e-06 4.8967368e-07 -5.7806104e-06    1182820.9        8e-24 
    1360 -6.2732489e-06 4.9263854e-07 -5.7806104e-06    1189982.6        8e-24 
    1380 -6.2758522e-06 4.9524179e-07 -5.7806104e-06    1196270.8        8e-24 
    1400 -6.2781525e-06 4.9754212e-07 -5.7806104e-06    1201827.3        8e-24 
    1420 -6.2800698e-06 4.9945937e-07 -5.7806104e-06    1206458.5        8e-24 
    1440 -6.281422e-06 5.0081151e-07 -5.7806104e-06    1209724.6        8e-24 
    1460 -6.2820174e-06 5.0140694e-07 -5.7806105e-06    1211162.9        8e-24 
    1480 -6.2817624e-06 5.0115192e-07 -5.7806105e-06    1210546.9        8e-24 
    1500 -6.2806649e-06 5.0005443e-07 -5.7806105e-06    1207895.9        8e-24 
    1520 -6.2787976e-06 4.9818717e-07 -5.7806104e-06    1203385.5        8e-24 
    1540 -6.2763569e-06 4.9574648e-07 -5.7806104e-06    1197489.9        8e-24 
    1560 -6.2735337e-06 4.9292333e-07 -5.7806104e-06    1190670.5        8e-24 
    1580 -6.2704438e-06 4.8983338e-07 -5.7806104e-06    1183206.6        8e-24 
    1600 -6.2672233e-06 4.8661296e-07 -5.7806103e-06    1175427.6        8e-24 
    1620 -6.264133e-06 4.8352278e-07 -5.7806103e-06    1167963.2        8e-24 
    1640 -6.2615893e-06 4.8097914e-07 -5.7806102e-06      1161819        8e-24 
    1660 -6.2599169e-06 4.793067e-07 -5.7806102e-06    1157779.1        8e-24 
    1680 -6.2590754e-06 4.7846514e-07 -5.7806102e-06    1155746.3        8e-24 
    1700 -6.2588868e-06 4.7827649e-07 -5.7806103e-06    1155290.6        8e-24 
    1720 -6.2591186e-06 4.7850828e-07 -5.7806103e-06    1155850.5        8e-24 
    1740 -6.2595522e-06 4.7894184e-07 -5.7806103e-06    1156897.8        8e-24 
    1760 -6.2601005e-06 4.7949021e-07 -5.7806103e-06    1158222.4        8e-24 
    1780 -6.2607613e-06 4.8015099e-07 -5.7806103e-06    1159818.6        8e-24 
    1800 -6.2616092e-06 4.8099895e-07 -5.7806103e-06    1161866.8        8e-24 
    1820 -6.2627344e-06 4.8212409e-07 -5.7806103e-06    1164584.6        8e-24 
    1840 -6.2640176e-06 4.8340729e-07 -5.7806103e-06    1167684.3        8e-24 
    1860 -6.2654803e-06 4.8487001e-07 -5.7806103e-06    1171217.5        8e-24 
    1880 -6.2672136e-06 4.8660331e-07 -5.7806103e-06    1175404.3        8e-24 
    1900 -6.2692613e-06  4.88651e-07 -5.7806103e-06    1180350.6        8e-24 
    1920 -6.2715173e-06 4.9090695e-07 -5.7806103e-06    1185799.9        8e-24 
    1940 -6.2737309e-06 4.9312058e-07 -5.7806104e-06      1191147        8e-24 
    1960 -6.2756217e-06 4.9501127e-07 -5.7806104e-06      1195714        8e-24 
    1980 -6.2769712e-06 4.9636075e-07 -5.7806104e-06    1198973.7        8e-24 
    2000 -6.2776701e-06 4.970597e-07 -5.7806104e-06      1200662        8e-24 
Loop time of 211.5 on 1 procs for 2000 steps with 2000 atoms

100.0% CPU use with 1 MPI tasks x no OpenMP threads

MPI task timing breakdown:
Section |  min time  |  avg time  |  max time  |%varavg| %total
---------------------------------------------------------------
Pair    | 126.48     | 126.48     | 126.48     |   0.0 | 59.80
Kspace  | 73.401     | 73.401     | 73.401     |   0.0 | 34.70
Neigh   | 1.4656     | 1.4656     | 1.4656     |   0.0 |  0.69
Comm    | 0.30871    | 0.30871    | 0.30871    |   0.0 |  0.15
Output  | 0.006732   | 0.006732   | 0.006732   |   0.0 |  0.00
Modify  | 9.7732     | 9.7732     | 9.7732     |   0.0 |  4.62
Other   |            | 0.06134    |            |       |  0.03

Nlocal:        2000.00 ave        2000 max        2000 min
Histogram: 1 0 0 0 0 0 0 0 0 0
Nghost:        16553.0 ave       16553 max       16553 min
Histogram: 1 0 0 0 0 0 0 0 0 0
Neighs:    1.39318e+06 ave 1.39318e+06 max 1.39318e+06 min
Histogram: 1 0 0 0 0 0 0 0 0 0

Total # of neighbors = 1393181
Ave neighs/atom = 696.59050
Neighbor list builds = 30
Dangerous builds = 0

print "Simulation done!"
Simulation done!
Total wall time: 0:06:54
