LAMMPS (27 May 2021)
# November 24 2019
# Author: Abdourahmane Diaw (diaw@lanl.gov)

# LAMMPS input script for radial distribution function and self-diffusion coefficient of Yukawa plasma
# Green-Kubo method via compute velocity flux and fix ave/correlate

# Potential parameters

variable       Gamma     file  Gamma.csv

# settings

variable       tproduction    equal   200000
variable       teq            equal   20000
variable       d              equal   floor(${teq}/100)
variable       d              equal   floor(20000/100)
variable       Nfreq          equal   floor(${tproduction}/2)
variable       Nfreq          equal   floor(200000/2)
variable       xlen           equal   2.339214400000001e-05*2
variable       prcoeff        equal   2.306881e-19
variable       ecrg           equal   4.803000e-10
variable       mass_p         equal   1.660000e-24
variable       Npar           equal   1024 #1024 2048 4000
variable       q              equal   4.803000e-10
variable       Imas           equal   1.660000e-24
variable       Z              equal   $q/${ecrg}
variable       Z              equal   4.803e-10/${ecrg}
variable       Z              equal   4.803e-10/4.803e-10
variable       mu             equal   ${Imas}/${mass_p}
variable       mu             equal   1.66e-24/${mass_p}
variable       mu             equal   1.66e-24/1.66e-24

# setup problem

units            cgs
atom_style       charge
dimension        3
boundary         p p p

region	        box block 0 ${xlen} 0 ${xlen} 0 ${xlen}  units box
region	        box block 0 4.6784288e-05 0 ${xlen} 0 ${xlen}  units box
region	        box block 0 4.6784288e-05 0 4.6784288e-05 0 ${xlen}  units box
region	        box block 0 4.6784288e-05 0 4.6784288e-05 0 4.6784288e-05  units box
create_box	    1 box
Created orthogonal box = (0.0000000 0.0000000 0.0000000) to (4.6784288e-05 4.6784288e-05 4.6784288e-05)
  5 by 2 by 2 MPI processor grid
create_atoms	1 random ${Npar}  257349 box
create_atoms	1 random 1024  257349 box
Created 1024 atoms
  create_atoms CPU = 0.001 seconds
mass            1 ${Imas}
mass            1 1.66e-24
set     type 1 charge  ${q}
set     type 1 charge  4.803e-10
Setting atom values ...
  1024 settings made for charge

# Set the cut-off of the force

variable       dens      equal    count(all)/vol
variable       aws       equal    (3./(4*PI*${dens}))^(1./3.)
variable       aws       equal    (3./(4*PI*9.99999731410227e+15))^(1./3.)
variable       rc        equal    5.0*${aws} #
variable       rc        equal    5.0*2.87941216927844e-06 
variable       dbin      equal    .1*${rc}
variable       dbin      equal    .1*1.43970608463922e-05

# Estimate the temperature from Gamma

variable       t      equal   ${prcoeff}*${Z}*${Z}/(1.3808E-16*${aws}*${Gamma})
variable       t      equal   2.306881e-19*${Z}*${Z}/(1.3808E-16*${aws}*${Gamma})
variable       t      equal   2.306881e-19*1*${Z}/(1.3808E-16*${aws}*${Gamma})
variable       t      equal   2.306881e-19*1*1/(1.3808E-16*${aws}*${Gamma})
variable       t      equal   2.306881e-19*1*1/(1.3808E-16*2.87941216927844e-06*${Gamma})
variable       t      equal   2.306881e-19*1*1/(1.3808E-16*2.87941216927844e-06*0.5024431810323525)

# Estimate the timestep from the inverse plasma frequency

variable       wp        equal   1.32e3*$Z*sqrt(${dens}/${mu})
variable       wp        equal   1.32e3*1*sqrt(${dens}/${mu})
variable       wp        equal   1.32e3*1*sqrt(9.99999731410227e+15/${mu})
variable       wp        equal   1.32e3*1*sqrt(9.99999731410227e+15/1)
variable       dtstep    equal   1e-2/${wp}
variable       dtstep    equal   1e-2/131999982273.074
variable       Tdamp     equal   100.*${dtstep}
variable       Tdamp     equal   100.*7.57575859314327e-14

# Define the potential

pair_style       coul/long      ${rc}
pair_style       coul/long      1.43970608463922e-05
pair_coeff       *   *
neighbor         ${dbin}        bin
neighbor         1.43970608463922e-06        bin

# Neighbor list and Ewald

neigh_modify delay 0 every 1 check yes page 500000 one 50000
neigh_modify    delay 0 every 1

pair_modify      table          0 #  12 tabinner ${tb} tail yes
kspace_style     ewald          1.0e-4

# set particles velocities using a Maxwellian distribution

velocity        all create $t 102486 dist gaussian units box
velocity        all create 1154.79161405206 102486 dist gaussian units box

# Equilibration run

fix		 	1 all nvt temp $t $t  ${Tdamp}
fix		 	1 all nvt temp 1154.79161405206 $t  ${Tdamp}
fix		 	1 all nvt temp 1154.79161405206 1154.79161405206  ${Tdamp}
fix		 	1 all nvt temp 1154.79161405206 1154.79161405206  7.57575859314327e-12

thermo		 	    $d
thermo		 	    200
thermo_style		custom step pe ke etotal temp

timestep		  ${dtstep}
timestep		  7.57575859314327e-14

run			  ${teq}
run			  20000
Ewald initialization ...
  using polynomial approximation for long-range coulomb (../kspace.cpp:342)
  G vector (1/distance) = 252990.33
  estimated absolute RMS force accuracy = 4.1979503e-08
  estimated relative force accuracy = 1.8195968e-05
  KSpace vectors: actual max1d max3d = 3 1 13
                  kxmax kymax kzmax  = 1 1 1
Neighbor list info ...
  update every 1 steps, delay 0 steps, check yes
  max neighbors/atom: 50000, page size: 500000
  master list distance cutoff = 1.5836767e-05
  ghost atom cutoff = 1.5836767e-05
  binsize = 7.9183835e-06, bins = 6 6 6
  1 neighbor lists, perpetual/occasional/extra = 1 0 0
  (1) pair coul/long, perpetual
      attributes: half, newton on
      pair build: half/bin/atomonly/newton
      stencil: half/bin/3d
      bin: standard
Per MPI rank memory allocation (min/avg/max) = 7.393 | 7.396 | 7.398 Mbytes
Step PotEng KinEng TotEng Temp 
       0 -2.606043e-11 2.4465508e-10 2.1859465e-10    1154.7916 
     200 -4.5402345e-11 2.4198471e-10 1.9658237e-10    1142.1873 
     400 -4.5350641e-11 2.5194531e-10 2.0659467e-10    1189.2021 
     600 -4.4086922e-11 2.3535275e-10 1.9126583e-10    1110.8839 
     800 -4.1868377e-11 2.4583213e-10 2.0396376e-10    1160.3474 
    1000 -4.6073772e-11 2.4759428e-10 2.015205e-10    1168.6649 
    1200 -4.5355065e-11 2.4140142e-10 1.9604636e-10    1139.4341 
    1400 -4.3525389e-11 2.4826457e-10 2.0473918e-10    1171.8287 
    1600 -4.5811593e-11 2.353486e-10  1.89537e-10    1110.8643 
    1800 -4.5850763e-11 2.4808477e-10  2.02234e-10      1170.98 
    2000 -4.7584188e-11 2.403646e-10 1.9278041e-10    1134.5402 
    2200 -4.662603e-11 2.4538434e-10 1.9875831e-10    1158.2338 
    2400 -4.7797946e-11 2.4573756e-10 1.9793962e-10     1159.901 
    2600 -4.6528604e-11 2.4256534e-10 1.9603674e-10    1144.9279 
    2800 -4.5623668e-11 2.4560008e-10 1.9997641e-10    1159.2521 
    3000 -4.6708504e-11 2.4112533e-10 1.9441683e-10    1138.1309 
    3200 -4.5973359e-11 2.4483664e-10 1.9886329e-10    1155.6486 
    3400 -4.669271e-11 2.4642537e-10 1.9973266e-10    1163.1475 
    3600 -4.6534039e-11 2.420355e-10 1.9550147e-10     1142.427 
    3800 -4.6455396e-11 2.4715282e-10 2.0069742e-10    1166.5811 
    4000 -4.4938166e-11 2.2704072e-10 1.8210256e-10    1071.6504 
    4200 -4.5597249e-11 2.4657936e-10 2.0098211e-10    1163.8744 
    4400 -4.6732403e-11 2.4131933e-10 1.9458692e-10    1139.0466 
    4600 -4.6998404e-11 2.4922259e-10 2.0222419e-10    1176.3506 
    4800 -4.6538188e-11 2.4385285e-10 1.9731466e-10     1151.005 
    5000 -4.7677594e-11 2.4538958e-10 1.9771199e-10    1158.2585 
    5200 -4.7024417e-11 2.4580414e-10 1.9877973e-10    1160.2153 
    5400 -4.7293108e-11 2.3883267e-10 1.9153956e-10    1127.3094 
    5600 -4.6791172e-11 2.4922011e-10 2.0242894e-10    1176.3389 
    5800 -4.7398846e-11 2.4017625e-10 1.927774e-10    1133.6512 
    6000 -4.4120474e-11 2.5141139e-10 2.0729092e-10    1186.6819 
    6200 -4.747394e-11 2.3992278e-10 1.9244884e-10    1132.4548 
    6400 -4.6639481e-11 2.5604133e-10 2.0940185e-10    1208.5356 
    6600 -4.5226998e-11  2.34085e-10  1.88858e-10       1104.9 
    6800 -4.6244679e-11 2.5124713e-10 2.0500246e-10    1185.9066 
    7000 -4.8269794e-11 2.3396382e-10 1.8569402e-10     1104.328 
    7200 -4.8095021e-11 2.456389e-10 1.9754388e-10    1159.4353 
    7400 -4.4924859e-11 2.4709348e-10 2.0216862e-10    1166.3011 
    7600 -4.5655377e-11 2.3509932e-10 1.8944394e-10    1109.6877 
    7800 -4.544179e-11 2.5336872e-10 2.0792694e-10    1195.9207 
    8000 -4.6001284e-11 2.4367173e-10 1.9767045e-10    1150.1501 
    8200 -4.6988808e-11 2.4941649e-10 2.0242768e-10    1177.2659 
    8400 -4.6358279e-11 2.4567815e-10 1.9931987e-10    1159.6206 
    8600 -4.6678913e-11 2.4335302e-10 1.9667411e-10    1148.6458 
    8800 -4.7245387e-11 2.5351357e-10 2.0626818e-10    1196.6044 
    9000 -4.7276211e-11 2.3846986e-10 1.9119365e-10    1125.5969 
    9200 -4.6088002e-11 2.4961657e-10 2.0352857e-10    1178.2103 
    9400 -4.7242531e-11 2.4105912e-10 1.9381659e-10    1137.8184 
    9600 -4.6148448e-11 2.5773272e-10 2.1158428e-10    1216.5191 
    9800 -4.6829502e-11 2.4092998e-10 1.9410048e-10    1137.2089 
   10000 -4.4653312e-11 2.4956897e-10 2.0491566e-10    1177.9856 
   10200 -4.5591025e-11 2.3453769e-10 1.8894666e-10    1107.0367 
   10400 -4.6722643e-11 2.5264563e-10 2.0592298e-10    1192.5076 
   10600 -4.7351695e-11 2.4559595e-10 1.9824425e-10    1159.2326 
   10800 -4.5810241e-11 2.4815202e-10 2.0234178e-10    1171.2975 
   11000 -4.6270953e-11  2.50873e-10 2.0460205e-10    1184.1407 
   11200 -4.4685013e-11 2.4118839e-10 1.9650338e-10    1138.4286 
   11400 -4.6258353e-11 2.5041966e-10 2.041613e-10    1182.0009 
   11600 -4.6713038e-11 2.3761572e-10 1.9090268e-10    1121.5653 
   11800 -4.5082899e-11 2.4608607e-10 2.0100317e-10     1161.546 
   12000 -4.6811395e-11 2.3606761e-10 1.8925622e-10    1114.2581 
   12200 -4.8019021e-11 2.4788456e-10 1.9986554e-10     1170.035 
   12400 -4.44526e-11 2.4172862e-10 1.9727602e-10    1140.9785 
   12600 -4.648791e-11 2.4212423e-10 1.9563632e-10    1142.8458 
   12800 -4.5193181e-11 2.479862e-10 2.0279302e-10    1170.5148 
   13000 -4.6281225e-11 2.3872336e-10 1.9244214e-10    1126.7934 
   13200 -4.3716536e-11 2.4502982e-10 2.0131328e-10    1156.5604 
   13400 -4.6658112e-11 2.4421155e-10 1.9755343e-10    1152.6981 
   13600 -4.4998928e-11 2.4249561e-10 1.9749669e-10    1144.5988 
   13800 -4.4270361e-11 2.5592384e-10 2.1165348e-10    1207.9811 
   14000 -4.5713265e-11 2.3760932e-10 1.9189605e-10    1121.5351 
   14200 -4.6103324e-11 2.5271578e-10 2.0661246e-10    1192.8388 
   14400 -4.7415278e-11 2.3376208e-10 1.863468e-10    1103.3758 
   14600 -4.5492398e-11 2.4572939e-10 2.0023699e-10    1159.8625 
   14800 -4.7932254e-11 2.4567048e-10 1.9773822e-10    1159.5844 
   15000 -4.4945029e-11 2.3887069e-10 1.9392566e-10    1127.4888 
   15200 -4.8061706e-11 2.4785621e-10 1.9979451e-10    1169.9012 
   15400 -4.6204256e-11 2.4436773e-10 1.9816348e-10    1153.4353 
   15600 -4.5749931e-11 2.5067979e-10 2.0492986e-10    1183.2287 
   15800 -4.7362501e-11 2.4252101e-10 1.9515851e-10    1144.7186 
   16000 -4.633171e-11 2.5353531e-10 2.072036e-10     1196.707 
   16200 -4.5801676e-11 2.3458409e-10 1.8878241e-10    1107.2557 
   16400 -4.6756764e-11 2.4903451e-10 2.0227774e-10    1175.4629 
   16600 -4.6232614e-11 2.407622e-10 1.9452959e-10    1136.4169 
   16800 -4.581979e-11 2.6170201e-10 2.1588222e-10    1235.2545 
   17000 -4.7143991e-11 2.4139654e-10 1.9425255e-10     1139.411 
   17200 -4.4996235e-11 2.4918694e-10 2.041907e-10    1176.1823 
   17400 -4.7407733e-11 2.4102735e-10 1.9361962e-10    1137.6685 
   17600 -4.5645067e-11 2.443015e-10 1.9865644e-10    1153.1227 
   17800 -4.6094245e-11 2.4276964e-10 1.9667539e-10    1145.8922 
   18000 -4.6108991e-11 2.4439554e-10 1.9828655e-10    1153.5666 
   18200 -4.6049379e-11  2.45444e-10 1.9939462e-10    1158.5154 
   18400 -4.7728522e-11 2.4548937e-10 1.9776084e-10    1158.7295 
   18600 -4.6140121e-11 2.5303243e-10 2.068923e-10    1194.3334 
   18800 -4.8016648e-11 2.4108886e-10 1.9307221e-10    1137.9588 
   19000 -4.9105392e-11 2.5290725e-10 2.0380186e-10    1193.7425 
   19200 -4.4824491e-11 2.3256098e-10 1.8773649e-10    1097.7065 
   19400 -4.5920404e-11 2.4808744e-10 2.0216704e-10    1170.9926 
   19600 -4.7248538e-11 2.3663046e-10 1.8938192e-10    1116.9148 
   19800 -4.6334476e-11 2.5247802e-10 2.0614354e-10    1191.7165 
   20000 -4.562375e-11 2.4016201e-10 1.9453826e-10     1133.584 
Loop time of 8.07711 on 20 procs for 20000 steps with 1024 atoms

98.3% CPU use with 20 MPI tasks x no OpenMP threads

MPI task timing breakdown:
Section |  min time  |  avg time  |  max time  |%varavg| %total
---------------------------------------------------------------
Pair    | 3.7118     | 3.9859     | 4.227      |   8.9 | 49.35
Kspace  | 1.5795     | 1.8573     | 2.1285     |  13.1 | 22.99
Neigh   | 0.50013    | 0.51856    | 0.535      |   1.3 |  6.42
Comm    | 1.2066     | 1.315      | 1.3981     |   4.7 | 16.28
Output  | 0.0028017  | 0.0028887  | 0.0038083  |   0.4 |  0.04
Modify  | 0.18296    | 0.21509    | 0.25575    |   3.8 |  2.66
Other   |            | 0.1824     |            |       |  2.26

Nlocal:        51.2000 ave          64 max          36 min
Histogram: 1 0 2 1 4 4 5 1 1 1
Nghost:        1210.10 ave        1233 max        1189 min
Histogram: 1 2 3 2 2 3 3 2 0 2
Neighs:        4221.05 ave        5566 max        2897 min
Histogram: 1 0 1 3 4 6 3 1 0 1

Total # of neighbors = 84421
Ave neighs/atom = 82.442383
Neighbor list builds = 2633
Dangerous builds = 0

velocity    all scale $t
velocity    all scale 1154.79161405206

# remove the thermostat
unfix 1
reset_timestep 0
fix nveid  all  nve

# compute RDF

#compute     myRDF330 all rdf 1024
#fix         rdfid330 all ave/time 1 ${Nfreq} ${tproduction} c_myRDF330[1]  c_myRDF330[2]  file #rdf.Gamma=${Gamma}.Kappa=${kappa}.aws=${aws}.csv mode vector

# self-diffusion calculation using in-built lammps vacf command

compute         vacf all vacf
fix             5    all vector 1 c_vacf[4]
# this is the reduced self-diffusion
variable        diff equal dt*trap(f_5)/3./(${aws}*${aws}*${wp})
variable        diff equal dt*trap(f_5)/3./(2.87941216927844e-06*${aws}*${wp})
variable        diff equal dt*trap(f_5)/3./(2.87941216927844e-06*2.87941216927844e-06*${wp})
variable        diff equal dt*trap(f_5)/3./(2.87941216927844e-06*2.87941216927844e-06*131999982273.074)
variable        D equal v_diff

# If you want more control over the value of the self-diffusion; use the trajectories and post process.
# Set the frequency of the dump
#dump 4a all custom 10000 dump.data id type vx vy vz

thermo_style custom step temp press ke pe etotal  c_vacf[4] v_diff
run ${tproduction}
run 200000
Ewald initialization ...
  using polynomial approximation for long-range coulomb (../kspace.cpp:342)
  G vector (1/distance) = 252990.33
  estimated absolute RMS force accuracy = 4.1979503e-08
  estimated relative force accuracy = 1.8195968e-05
  KSpace vectors: actual max1d max3d = 3 1 13
                  kxmax kymax kzmax  = 1 1 1
Per MPI rank memory allocation (min/avg/max) = 7.769 | 7.771 | 7.773 Mbytes
Step Temp Press KinEng PotEng TotEng c_vacf[4] v_diff 
       0    1154.7916    2092.8678 2.4465508e-10 -4.562375e-11 1.9903133e-10 2.878566e+11            0 
     200    1152.7079    2091.4488 2.4421363e-10 -4.518197e-11 1.9903166e-10 2.4867216e+11    1.2500554 
     400    1160.3663    2093.9599 2.4583615e-10 -4.6805162e-11 1.9903099e-10 2.1037167e+11     2.305604 
     600    1164.3171    2095.1983 2.4667315e-10 -4.7641747e-11 1.990314e-10 1.7895669e+11    3.2045867 
     800    1159.4185    2096.6514 2.4563535e-10 -4.6604269e-11 1.9903108e-10 1.5287378e+11    3.9626028 
    1000    1160.5486    2093.3221 2.4587475e-10 -4.6843589e-11 1.9903116e-10 1.2856792e+11    4.6115973 
    1200      1156.97    2093.9153 2.4511659e-10 -4.6085554e-11 1.9903103e-10 1.0941451e+11     5.158245 
    1400    1149.7122    2095.3372 2.4357895e-10 -4.4547498e-11 1.9903146e-10 8.9320477e+10    5.6177933 
    1600      1153.84     2093.251 2.4445347e-10 -4.5422503e-11 1.9903097e-10 7.4939074e+10    5.9967969 
    1800    1160.3754    2092.9723 2.4583806e-10 -4.6806579e-11 1.9903148e-10 6.0357673e+10    6.3118537 
    2000    1156.5825    2092.2128 2.450345e-10 -4.6003062e-11 1.9903144e-10 5.1628307e+10    6.5728674 
    2200    1159.7631    2093.5915 2.4570833e-10 -4.667691e-11 1.9903143e-10 4.6210967e+10    6.7995444 
    2400    1147.5762    2090.6748 2.4312643e-10 -4.4094134e-11 1.9903229e-10 3.7222841e+10    6.9871565 
    2600     1154.082    2091.2727 2.4450474e-10 -4.5472652e-11 1.9903209e-10 2.9812724e+10    7.1412326 
    2800    1160.0108    2090.8236 2.4576083e-10 -4.6729472e-11 1.9903136e-10 2.9103528e+10    7.2720295 
    3000    1150.2169    2090.9955 2.4368588e-10 -4.4654993e-11 1.9903089e-10 3.0482998e+10    7.4124059 
    3200    1151.6825    2091.2101 2.4399637e-10 -4.4964797e-11 1.9903158e-10 2.5799348e+10    7.5461793 
    3400    1164.4673    2093.6387 2.4670498e-10 -4.7673858e-11 1.9903112e-10 2.3819262e+10    7.6564003 
    3600    1157.3881    2090.0028 2.4520517e-10 -4.6173679e-11 1.9903149e-10 1.9190272e+10    7.7608357 
    3800    1149.5966    2092.1708 2.4355446e-10 -4.4523332e-11 1.9903113e-10 1.4058834e+10    7.8306227 
    4000    1151.0494    2087.7781 2.4386224e-10 -4.4830364e-11 1.9903188e-10 1.3878858e+10    7.8931812 
    4200    1164.1725    2094.9918 2.4664253e-10 -4.7611317e-11 1.9903121e-10 1.4329687e+10    7.9588367 
    4400    1165.6537    2093.7732 2.4695632e-10 -4.792518e-11 1.9903114e-10 9.4739521e+09    8.0173284 
    4600    1164.9907    2094.4736 2.4681586e-10 -4.7784556e-11 1.9903131e-10 1.0739365e+10    8.0657265 
    4800    1152.7295     2088.948 2.442182e-10 -4.5186407e-11 1.990318e-10 9.1479925e+09    8.1060395 
    5000    1154.4562    2092.2031 2.4458403e-10 -4.5552072e-11 1.9903196e-10 1.2693405e+10    8.1562692 
    5200      1157.75    2092.7641 2.4528186e-10 -4.6251203e-11 1.9903065e-10 1.0933436e+10    8.2126104 
    5400    1154.5637    2095.7071 2.446068e-10 -4.5576501e-11 1.990303e-10 9.0473448e+09    8.2560721 
    5600     1154.985    2095.0137 2.4469605e-10 -4.566506e-11 1.9903099e-10 8.1527514e+09    8.2945414 
    5800    1158.9148    2095.0209 2.4552862e-10 -4.6497728e-11 1.9903089e-10 8.6395003e+09    8.3381473 
    6000     1153.658    2094.5306 2.4441492e-10 -4.5383905e-11 1.9903101e-10 8.3186144e+09    8.3749465 
    6200    1153.6429    2091.7181 2.4441172e-10 -4.5380282e-11 1.9903144e-10 1.3647667e+10    8.4271177 
    6400    1149.7958     2093.507 2.4359666e-10 -4.4564715e-11 1.9903195e-10 7.7495643e+09     8.479207 
    6600    1156.0439    2090.3308 2.449204e-10 -4.5889108e-11 1.9903129e-10 7.8774336e+09    8.5127812 
    6800    1158.4402    2089.0986 2.4542806e-10 -4.6396526e-11 1.9903154e-10 1.0888805e+10    8.5540588 
    7000    1161.1162    2095.6999 2.4599501e-10 -4.6964305e-11 1.990307e-10 8.3548952e+09    8.6060397 
    7200    1158.3257    2094.4524 2.4540381e-10 -4.6372312e-11 1.990315e-10 4.9786033e+09    8.6396072 
    7400    1161.5062    2093.2418 2.4607763e-10 -4.7046141e-11 1.9903149e-10 2.6981846e+09    8.6610016 
    7600    1154.8871     2090.561 2.446753e-10 -4.5643792e-11 1.9903151e-10 4.765977e+08    8.6701126 
    7800    1156.2696    2093.3154 2.449682e-10 -4.5937487e-11 1.9903071e-10 5.698047e+08    8.6745455 
    8000    1159.7227     2095.708 2.4569979e-10 -4.6667706e-11 1.9903209e-10    -19149617    8.6703687 
    8200    1157.6622    2091.6712 2.4526325e-10 -4.6232205e-11 1.9903105e-10 3.6803006e+09    8.6776482 
    8400    1158.8917    2094.1549 2.4552374e-10 -4.649319e-11 1.9903055e-10 2.8031326e+09    8.6909501 
    8600    1161.8681    2095.1631 2.4615431e-10 -4.712335e-11 1.9903095e-10 2.4688489e+09    8.7047774 
    8800     1148.146    2087.2316 2.4324714e-10 -4.4215643e-11 1.990315e-10 3.2882871e+09    8.7149421 
    9000     1152.343    2089.7028 2.4413631e-10 -4.5105284e-11 1.9903103e-10 1.6818398e+09    8.7233774 
    9200    1159.9616    2094.3217 2.4575039e-10 -4.6718995e-11 1.9903139e-10 1.3677309e+09    8.7312509 
    9400    1162.7333    2093.8003 2.4633761e-10 -4.7306877e-11 1.9903074e-10 3.0527426e+09    8.7437013 
    9600    1157.3781    2094.9973 2.4520306e-10 -4.617171e-11 1.9903135e-10 8.2158451e+08    8.7560279 
    9800    1150.4429    2091.4504 2.4373375e-10 -4.4704987e-11 1.9902876e-10 3.1531315e+09    8.7644564 
   10000    1155.1235    2090.3475 2.4472538e-10 -4.5693686e-11 1.990317e-10 7.5009058e+09    8.7840836 
   10200    1153.1318    2094.5661 2.4430344e-10 -4.527285e-11 1.9903059e-10 8.0163586e+09    8.8211481 
   10400    1156.1137    2093.0042 2.4493517e-10 -4.5903807e-11 1.9903136e-10 5.4029997e+09    8.8553413 
   10600    1157.8622    2091.1698 2.4530562e-10 -4.6274003e-11 1.9903162e-10 2.917798e+09     8.870368 
   10800    1153.9264    2093.1028 2.4447178e-10 -4.5440564e-11 1.9903122e-10 2.9659681e+09    8.8819933 
   11000    1154.4489    2090.8338 2.4458248e-10 -4.5551221e-11 1.9903125e-10 1.1612907e+09    8.8983688 
   11200    1155.4757    2092.9207    2.448e-10 -4.5768724e-11 1.9903128e-10 -2.9866961e+09    8.8916664 
   11400    1161.2641    2095.2971 2.4602634e-10 -4.6995276e-11 1.9903106e-10 9.7838014e+08    8.8840005 
   11600    1154.0727    2094.5848 2.4450278e-10 -4.5472299e-11 1.9903048e-10 3.037935e+09    8.8917712 
   11800    1153.4478    2091.4481 2.4437038e-10 -4.5338901e-11 1.9903148e-10 2.6340827e+09    8.9086243 
   12000    1158.6964    2091.9849 2.4548235e-10 -4.6450045e-11 1.990323e-10 5.6337314e+09    8.9270988 
   12200    1162.1998    2093.8809 2.4622459e-10 -4.7193936e-11 1.9903065e-10 3.8315513e+09    8.9476334 
   12400     1164.456    2091.3638 2.4670258e-10 -4.7670909e-11 1.9903167e-10 8.7797826e+09    8.9774463 
   12600    1158.6256    2094.1283 2.4546736e-10 -4.6435968e-11 1.9903139e-10 6.881504e+09    9.0141139 
   12800    1160.3989    2095.6312 2.4584304e-10 -4.6811932e-11 1.990311e-10 5.4748763e+09    9.0423317 
   13000    1156.7802    2093.1412 2.4507639e-10 -4.6044747e-11 1.9903165e-10 6.4350821e+09    9.0654996 
   13200     1149.613    2094.6763 2.4355792e-10 -4.4525879e-11 1.9903204e-10 4.9395814e+09    9.0942901 
   13400    1157.0372    2095.2745 2.4513083e-10 -4.6099426e-11 1.9903141e-10 2.1584066e+09    9.1056354 
   13600     1161.131    2092.3215 2.4599815e-10 -4.6966714e-11 1.9903144e-10 2.1975177e+09    9.1150052 
   13800    1151.4813    2096.0886 2.4395375e-10 -4.4922149e-11 1.990316e-10 -1.1288985e+09    9.1187961 
   14000    1149.5573    2093.0876 2.4354613e-10 -4.4514547e-11 1.9903158e-10 2.1026505e+09    9.1224393 
   14200    1159.9544    2094.8389 2.4574887e-10 -4.6716592e-11 1.9903228e-10     56220485    9.1265145 
   14400    1157.3079    2092.0738 2.4518819e-10 -4.6156871e-11 1.9903131e-10 1.204378e+09    9.1281829 
   14600    1153.9046    2095.6694 2.4446716e-10 -4.5436069e-11 1.9903109e-10 4.0738095e+09    9.1369845 
   14800    1165.4593    2090.7649 2.4691515e-10 -4.788336e-11 1.9903179e-10 8.0571174e+09    9.1629982 
   15000     1161.076    2094.7818 2.4598651e-10 -4.6953935e-11 1.9903257e-10 6.0180808e+09    9.1997473 
   15200    1151.7801    2090.9316 2.4401706e-10 -4.4987145e-11 1.9902992e-10 1.1025915e+10    9.2387608 
   15400    1151.2977    2093.8414 2.4391485e-10 -4.4883531e-11 1.9903132e-10 1.5158179e+10    9.3009758 
   15600    1168.3597    2094.4375 2.4752962e-10 -4.84978e-11 1.9903182e-10 1.5387549e+10    9.3699043 
   15800      1156.02    2090.8772 2.4491532e-10 -4.5884112e-11 1.9903121e-10 1.2074125e+10    9.4353909 
   16000    1161.9312    2092.8121 2.4616768e-10 -4.7136116e-11 1.9903157e-10 7.4785222e+09    9.4749599 
   16200    1155.2694    2090.9014 2.4475631e-10 -4.5725038e-11 1.9903127e-10 5.880847e+09    9.5095137 
   16400    1155.8845    2094.5276 2.4488662e-10 -4.5854975e-11 1.9903165e-10 3.645396e+09    9.5321563 
   16600    1153.1198    2094.3295 2.4430088e-10 -4.5269689e-11 1.9903119e-10 3.4817704e+09    9.5465279 
   16800     1159.339    2099.8426 2.456185e-10 -4.6587363e-11 1.9903113e-10 5.3100912e+09    9.5650346 
   17000    1152.9937    2089.0245 2.4427417e-10 -4.5242585e-11 1.9903158e-10 1.0719979e+09     9.580538 
   17200    1155.3788    2091.2918 2.4477948e-10 -4.5748615e-11 1.9903086e-10 -2.593335e+09     9.574828 
   17400    1159.9089    2095.4852 2.4573923e-10 -4.6708395e-11 1.9903084e-10 -4.5943251e+09    9.5571974 
   17600    1160.0446    2090.9949 2.4576798e-10 -4.6737583e-11 1.990304e-10 -2.2687898e+09    9.5369372 
   17800    1161.7608    2095.0549 2.4613158e-10 -4.7100365e-11 1.9903122e-10 2.2529031e+09     9.542122 
   18000    1158.4497    2091.8702 2.4543009e-10 -4.6398754e-11 1.9903134e-10 2.4971439e+09    9.5525359 
   18200     1164.029     2093.987 2.4661212e-10 -4.758175e-11 1.9903037e-10 5.4516427e+09    9.5717266 
   18400     1158.448     2094.821 2.4542972e-10 -4.6398597e-11 1.9903113e-10 4.4243783e+09    9.5953628 
   18600    1156.3177    2095.7538 2.449784e-10 -4.5947249e-11 1.9903115e-10 5.2949614e+09    9.6153308 
   18800    1165.8356    2090.6056 2.4699486e-10 -4.7963642e-11 1.9903122e-10 2.8834282e+09    9.6326456 
   19000    1158.0677    2093.6595 2.4534914e-10 -4.6317833e-11 1.9903131e-10 5.1915196e+09    9.6490976 
   19200    1153.9307    2094.1098 2.4447269e-10 -4.5441839e-11 1.9903085e-10 7.6087391e+09    9.6779966 
   19400    1158.2775    2092.4971 2.453936e-10 -4.6361916e-11 1.9903169e-10 2.856619e+09    9.7025484 
   19600    1162.3678    2095.6457 2.4626018e-10 -4.7229436e-11 1.9903074e-10 3.5596735e+09     9.719842 
   19800    1157.3798    2092.8095 2.4520341e-10 -4.617305e-11 1.9903036e-10 6.3361942e+09     9.742317 
   20000     1153.121    2089.0599 2.4430114e-10 -4.5269261e-11 1.9903188e-10 8.9634165e+09    9.7792476 
   20200    1159.2873    2090.5084 2.4560754e-10 -4.6569996e-11 1.9903755e-10 1.121151e+10    9.8252737 
   20400    1163.5074    2095.6582 2.4650162e-10 -4.7470656e-11 1.9903097e-10 8.9516753e+09    9.8750382 
   20600    1161.0499    2093.5623 2.4598098e-10 -4.6950063e-11 1.9903091e-10 3.3399875e+09    9.8997291 
   20800    1155.7844    2093.1958 2.4486542e-10 -4.583407e-11 1.9903135e-10 2.9103019e+09    9.9153571 
   21000    1164.8436    2091.1711 2.467847e-10 -4.775352e-11 1.9903118e-10 5.8881825e+09    9.9352952 
   21200    1154.2846    2089.4464 2.4454766e-10 -4.5516483e-11 1.9903118e-10 6.3551321e+09    9.9630045 
   21400    1151.8518    2093.8506 2.4403225e-10 -4.5001366e-11 1.9903089e-10 6.479815e+09    9.9997806 
   21600     1161.525    2096.4439 2.4608163e-10 -4.7050326e-11 1.990313e-10 3.996832e+09    10.024607 
   21800    1152.7351    2087.6093 2.4421939e-10 -4.518707e-11 1.9903232e-10 1.6010729e+08    10.031818 
   22000    1158.8631    2091.9575 2.4551767e-10 -4.648596e-11 1.9903171e-10 5.6686474e+09     10.04129 
   22200    1150.2787    2092.6734 2.4369898e-10 -4.4667863e-11 1.9903112e-10 8.0850291e+09    10.072768 
   22400    1157.7271    2087.5925  2.45277e-10 -4.6245716e-11 1.9903129e-10 6.5445797e+09    10.106418 
   22600    1167.0798    2093.7479 2.4725847e-10 -4.8227255e-11 1.9903121e-10 9.2800506e+09    10.144801 
   22800    1157.1816    2091.3205 2.4516141e-10 -4.6130756e-11 1.9903066e-10 9.3583076e+09    10.192147 
   23000    1149.2204     2089.411 2.4347475e-10 -4.444351e-11 1.9903124e-10 4.7332225e+09    10.219258 
   23200    1162.0357    2094.4388 2.4618981e-10 -4.7158696e-11 1.9903111e-10 4.2470421e+09    10.242448 
   23400    1160.8873    2094.5529 2.4594653e-10 -4.691515e-11 1.9903138e-10 1.7467981e+09    10.263501 
   23600    1158.7731     2088.662 2.454986e-10 -4.6467047e-11 1.9903156e-10 -4.7893669e+08    10.263543 
   23800    1162.9212    2101.2991 2.4637743e-10 -4.7346598e-11 1.9903083e-10 1.5611377e+09    10.263683 
   24000    1157.9616    2096.5974 2.4532667e-10 -4.6295397e-11 1.9903127e-10 1.2329758e+09    10.275049 
   24200     1155.197    2097.4794 2.4474096e-10 -4.5709745e-11 1.9903122e-10 2.9217917e+09    10.289531 
   24400    1155.4919    2096.6406 2.4480344e-10 -4.5771691e-11 1.9903175e-10 -2.954923e+09    10.290002 
   24600    1163.9847    2095.3035 2.4660274e-10 -4.7571227e-11 1.9903152e-10 -6.0348742e+09    10.271622 
   24800     1156.657    2095.1464 2.4505029e-10 -4.6018875e-11 1.9903142e-10 -5.0565534e+09    10.241564 
   25000    1151.6891    2093.1764 2.4399778e-10 -4.496601e-11 1.9903177e-10 -1.2040371e+09    10.220446 
   25200     1155.788    2096.1917 2.4486618e-10 -4.5835143e-11 1.9903104e-10 -3.491445e+09    10.210364 
   25400    1159.2963     2094.251 2.4560944e-10 -4.657821e-11 1.9903123e-10 -1.6713248e+09    10.198852 
   25600    1153.8783    2091.9628 2.4446158e-10 -4.5429488e-11 1.9903209e-10 3.2885656e+09    10.196065 
   25800    1156.7744    2093.7644 2.4507515e-10 -4.6044126e-11 1.9903102e-10 2.7272441e+09     10.21016 
   26000    1156.0417     2091.639 2.4491992e-10 -4.5888979e-11 1.9903094e-10 -1.0854633e+09    10.212832 
   26200    1157.1868    2095.4377 2.4516252e-10 -4.6131289e-11 1.9903123e-10 1.8963672e+09    10.211942 
   26400    1154.2142    2091.8604 2.4453274e-10 -4.549991e-11 1.9903283e-10 -2.4599751e+09    10.209075 
   26600    1154.7815    2095.1641 2.4465294e-10 -4.5621433e-11 1.990315e-10 -3.5534306e+09    10.195649 
   26800    1154.9158    2092.5052 2.4468139e-10 -4.5650681e-11 1.9903071e-10 -2.1740159e+09    10.177132 
   27000    1162.6168    2096.1137 2.4631292e-10 -4.7281679e-11 1.9903124e-10 -9.5717034e+08    10.173945 
   27200     1157.669    2092.3378 2.4526469e-10 -4.6233522e-11 1.9903117e-10 2.8758152e+09    10.180264 
   27400    1157.6425    2093.3791 2.4525908e-10 -4.6228469e-11 1.9903061e-10    -95922946    10.182903 
   27600    1161.9675    2088.3422 2.4617537e-10 -4.7143852e-11 1.9903152e-10 5.1846172e+08    10.189336 
   27800    1154.0296    2090.1369 2.4449363e-10 -4.5461887e-11 1.9903174e-10 -4.7004676e+09    10.182267 
   28000    1147.7061    2093.3857 2.4315393e-10 -4.4122609e-11 1.9903132e-10 1.3797925e+09     10.17207 
   28200     1157.253     2090.918 2.4517655e-10 -4.6144421e-11 1.9903213e-10 2.2659432e+08    10.177795 
   28400    1152.7213     2087.311 2.4421647e-10 -4.5184777e-11 1.9903169e-10 -5.5027701e+08     10.17309 
   28600    1151.3793    2089.8995 2.4393214e-10 -4.490021e-11 1.9903193e-10 -1.1557927e+09    10.172441 
   28800    1159.9987    2095.8349 2.4575825e-10 -4.6727805e-11 1.9903044e-10 1.5286192e+09    10.174185 
   29000     1155.388    2096.3168 2.4478144e-10 -4.5750632e-11 1.9903081e-10 5.2532992e+08    10.175601 
   29200    1157.7732     2097.018 2.4528675e-10 -4.6256161e-11 1.9903059e-10 4.3498919e+09    10.192789 
   29400    1151.2128    2089.7317 2.4389687e-10 -4.4865211e-11 1.9903166e-10 -3.0375469e+09    10.198176 
   29600    1156.3804    2091.7339 2.4499167e-10 -4.5960327e-11 1.9903134e-10 -5.4889042e+09    10.173052 
   29800     1171.905    2097.9564 2.4828074e-10 -4.9249732e-11 1.9903101e-10 -7.6381081e+08    10.149684 
   30000    1154.0656    2094.3545 2.4450126e-10 -4.546975e-11 1.9903151e-10 1.8401946e+08    10.153139 
   30200    1156.8081    2091.2931 2.450823e-10 -4.6051576e-11 1.9903073e-10 5.8129415e+09    10.165437 
   30400    1163.5492     2096.073 2.4651047e-10 -4.7479408e-11 1.9903106e-10 7.3952616e+09    10.203933 
   30600    1157.1118    2092.1305 2.4514664e-10 -4.6115987e-11 1.9903066e-10 3.9612033e+09    10.227779 
   30800    1159.7913     2098.891 2.4571432e-10 -4.6683005e-11 1.9903132e-10 5.8981891e+08    10.239393 
   31000     1158.412    2091.4808 2.4542211e-10 -4.6390655e-11 1.9903145e-10 1.7296852e+09    10.246686 
   31200    1159.4271    2092.8281 2.4563716e-10 -4.6604771e-11 1.9903239e-10 6.2268967e+08    10.244657 
   31400    1156.2518       2091.5 2.4496443e-10 -4.5933316e-11 1.9903112e-10 -4.7422481e+08    10.249496 
   31600    1160.0275     2096.139 2.4576435e-10 -4.6733069e-11 1.9903128e-10 -4.5906272e+09      10.2384 
   31800    1157.9602    2093.9802 2.4532638e-10 -4.6295678e-11 1.990307e-10 -3.585665e+09     10.22152 
   32000    1158.7095    2095.9861 2.4548512e-10 -4.645447e-11 1.9903065e-10 2.3865559e+08    10.211624 
   32200    1158.3076    2090.8984 2.4539997e-10 -4.6368739e-11 1.9903123e-10 2.9614149e+09    10.224541 
   32400    1155.9235    2093.2171 2.4489489e-10 -4.5863509e-11 1.9903138e-10 2.3260928e+09    10.234502 
   32600    1142.6964    2088.7613 2.4209258e-10 -4.3060278e-11 1.990323e-10 3.6972552e+09    10.251407 
   32800    1160.2286    2089.8128 2.4580697e-10 -4.677546e-11 1.9903151e-10 7.6265198e+09    10.272188 
   33000    1163.4797    2095.6826 2.4649574e-10 -4.7464154e-11 1.9903159e-10 3.9983662e+09    10.305808 
   33200    1161.3658    2090.9809 2.4604788e-10 -4.7016475e-11 1.9903141e-10 1.7932399e+09    10.318482 
   33400    1151.9832    2091.2651 2.4406009e-10 -4.502785e-11 1.9903223e-10 2.1216078e+09    10.326124 
   33600    1157.9717    2092.2098 2.4532881e-10 -4.6297932e-11 1.9903088e-10 -4.3435776e+08    10.329117 
   33800    1153.5503    2092.0753 2.443921e-10 -4.5360554e-11 1.9903154e-10 -3.52843e+08    10.324079 
   34000    1155.7384    2093.2748 2.4485567e-10 -4.5824236e-11 1.9903143e-10 -5.197251e+09    10.310352 
   34200     1160.115     2093.956 2.457829e-10 -4.6752205e-11 1.9903069e-10 -5.4676883e+09    10.281396 
   34400    1147.0372    2095.8312 2.4301222e-10 -4.3981383e-11 1.9903084e-10 -4.1408101e+09    10.265439 
   34600    1159.0083    2094.6367 2.4554844e-10 -4.6518038e-11 1.990304e-10 -1.5431087e+09    10.253965 
   34800    1161.3798    2092.3443 2.4605086e-10 -4.7020351e-11 1.9903051e-10 -2.1190532e+09    10.245521 
   35000    1165.4837    2094.8125 2.469203e-10 -4.7889121e-11 1.9903118e-10 7.905061e+08    10.242338 
   35200    1157.6741    2096.4103 2.4526576e-10 -4.6234647e-11 1.9903111e-10 2.0396653e+09    10.252508 
   35400      1161.51    2095.2466 2.4607843e-10 -4.7046866e-11 1.9903157e-10 2.5264036e+09    10.267941 
   35600    1157.8757    2097.7541 2.4530848e-10 -4.6277446e-11 1.9903104e-10 2.4367533e+09    10.277857 
   35800    1158.2396    2095.0347 2.4538557e-10 -4.6354948e-11 1.9903062e-10 3.0200453e+09     10.29275 
   36000    1164.6586    2098.3362 2.4674551e-10 -4.771427e-11 1.9903124e-10 5.4773801e+09    10.314389 
   36200    1159.9823    2096.3606 2.4575479e-10 -4.6723828e-11 1.9903096e-10 5.3218766e+09    10.335292 
   36400    1156.1014    2090.8439 2.4493256e-10 -4.5901593e-11 1.9903097e-10     55847705    10.352541 
   36600    1162.0087     2091.951 2.4618411e-10 -4.715404e-11 1.9903006e-10 -3.8929152e+09    10.335693 
   36800    1157.2891    2095.2081 2.451842e-10 -4.6152259e-11 1.9903195e-10     33996272    10.325194 
   37000     1157.421     2093.674 2.4521215e-10 -4.6180844e-11 1.990313e-10 -2.1635339e+08    10.325978 
   37200    1163.6629    2091.4217 2.4653457e-10 -4.7503434e-11 1.9903113e-10 4.5862405e+08    10.328539 
   37400    1152.8217    2093.9096 2.4423773e-10 -4.5205844e-11 1.9903189e-10 -3.3991313e+09    10.322982 
   37600    1156.3308    2095.3491 2.4498117e-10 -4.5949987e-11 1.9903118e-10 -4.8086189e+09    10.303659 
   37800    1152.9446    2089.7673 2.4426378e-10 -4.5232055e-11 1.9903172e-10 -4.5464999e+08    10.294619 
   38000    1165.3104    2097.7544 2.468836e-10 -4.7852508e-11 1.9903109e-10 -3.4365526e+09    10.282222 
   38200     1160.868    2095.0154 2.4594242e-10 -4.6910951e-11 1.9903147e-10 -8.7793018e+08     10.27376 
   38400    1162.5541     2093.022 2.4629965e-10 -4.726829e-11 1.9903136e-10     46782668    10.273054 
   38600    1165.0528    2097.3246 2.4682903e-10 -4.7798128e-11 1.990309e-10 -1.2643052e+09    10.270611 
   38800    1158.3788    2095.3722 2.4541507e-10 -4.6384308e-11 1.9903076e-10 -4.1548601e+09     10.25733 
   39000    1161.1827    2093.8275 2.460091e-10 -4.6977305e-11 1.990318e-10 -2.6113908e+08    10.247243 
   39200    1162.4007    2094.3539 2.4626714e-10 -4.723523e-11 1.9903191e-10 -3.8725759e+09    10.239467 
   39400    1152.2014    2090.8116 2.4410631e-10 -4.507419e-11 1.9903213e-10 -3.0248647e+09    10.220572 
   39600    1167.4265    2094.1739 2.4733191e-10 -4.8301341e-11 1.9903057e-10 -4.4897951e+09    10.203539 
   39800    1162.3259     2098.456 2.462513e-10 -4.7220084e-11 1.9903122e-10 -3.8887145e+09    10.179824 
   40000    1152.3093    2096.1961 2.4412918e-10 -4.5098374e-11 1.9903081e-10 -1.7755837e+08    10.173182 
   40200    1157.8728    2092.7867 2.4530787e-10 -4.6276514e-11 1.9903136e-10 1.5613223e+09    10.173429 
   40400    1153.2705    2091.9437 2.4433283e-10 -4.530214e-11 1.9903069e-10 1.5669397e+09    10.179334 
   40600    1160.6344    2093.7563 2.4589294e-10 -4.6861994e-11 1.9903094e-10 3.5673577e+09    10.189513 
   40800    1155.6354    2096.6141 2.4483385e-10 -4.580294e-11 1.9903091e-10 -4.4404088e+08    10.202474 
   41000    1166.0893    2095.8833 2.4704862e-10 -4.8017621e-11 1.9903099e-10 -6.3438152e+09    10.187665 
   41200    1157.5958    2094.6032 2.4524918e-10 -4.6217549e-11 1.9903164e-10 -5.5720041e+08    10.168946 
   41400    1157.8749     2092.398 2.453083e-10 -4.6276897e-11 1.990314e-10 4.5868239e+09    10.178936 
   41600     1166.292    2097.8921 2.4709157e-10 -4.8060517e-11 1.9903105e-10 4.3861287e+09     10.19872 
   41800    1158.3242    2094.8563 2.4540349e-10 -4.6372824e-11 1.9903066e-10 1.5465495e+09    10.216724 
   42000    1166.3813    2095.3191 2.4711048e-10 -4.8079296e-11 1.9903119e-10 -2.5222497e+09    10.211756 
   42200    1163.5766     2099.923 2.4651628e-10 -4.7485303e-11 1.9903098e-10 1.313989e+08    10.207188 
   42400      1151.84    2087.9238 2.4402974e-10 -4.4998429e-11 1.9903131e-10 -2.5284734e+08    10.206515 
   42600     1155.187    2091.0718 2.4473885e-10 -4.5705892e-11 1.9903296e-10  5.63463e+08    10.207596 
   42800    1151.4078    2094.7375 2.4393818e-10 -4.490403e-11 1.9903415e-10 -4.2142307e+09    10.201216 
   43000    1158.5212    2089.5571 2.4544523e-10 -4.6413725e-11 1.9903151e-10 -5.0347603e+09    10.183744 
   43200    1153.9787    2089.4085 2.4448285e-10 -4.5451315e-11 1.9903153e-10 -4.2676507e+09    10.164784 
   43400    1151.9217    2092.3358 2.4404705e-10 -4.5015723e-11 1.9903133e-10 -8.1810949e+09    10.139961 
   43600    1160.0658    2090.6566 2.4577248e-10 -4.6742144e-11 1.9903033e-10 -1.0371668e+10    10.090862 
   43800    1154.7823    2089.9434 2.4465311e-10 -4.5621568e-11 1.9903155e-10 -8.2916123e+09    10.053436 
   44000    1154.9461    2087.2067 2.4468782e-10 -4.5655126e-11 1.9903269e-10 -7.6976468e+09    10.010285 
   44200      1152.79    2090.2163 2.4423102e-10 -4.5201013e-11 1.9903001e-10 -9.6010667e+09    9.9725837 
   44400    1153.4319    2089.7494  2.44367e-10 -4.5335085e-11 1.9903192e-10 -9.7402723e+09    9.9219473 
   44600    1156.0039    2091.4375 2.4491192e-10 -4.5881057e-11 1.9903087e-10 -4.0404222e+09    9.8874441 
   44800    1157.7347     2093.609 2.452786e-10 -4.6247605e-11 1.9903099e-10 -2.6960527e+09    9.8782784 
   45000    1160.9685    2095.2396 2.4596372e-10 -4.6932471e-11 1.9903125e-10 -4.2399947e+09    9.8575759 
   45200    1151.5917    2091.9114 2.4397714e-10 -4.4945327e-11 1.9903182e-10 -2.5491366e+09    9.8351622 
   45400    1152.8256    2093.7008 2.4423857e-10 -4.5207592e-11 1.9903097e-10 3.9231492e+09    9.8336718 
   45600    1154.7387    2092.8934 2.4464386e-10 -4.5612006e-11 1.9903186e-10 3.7919011e+09    9.8502916 
   45800    1159.5693    2095.7305 2.4566728e-10 -4.6635113e-11 1.9903217e-10 -2.8926746e+09    9.8485047 
   46000     1160.562    2089.1816 2.458776e-10 -4.6847069e-11 1.9903053e-10 -4.7543293e+09    9.8288192 
   46200    1161.1527     2091.823 2.4600274e-10 -4.6971378e-11 1.9903136e-10 -5.5024238e+09     9.806951 
   46400    1167.2427    2094.1713 2.4729298e-10 -4.8262078e-11 1.990309e-10 -8.589255e+09    9.7702163 
   46600    1155.4723    2094.7827 2.4479928e-10 -4.576777e-11 1.9903151e-10 -1.0792796e+10    9.7261835 
   46800     1155.981    2089.2097 2.4490707e-10 -4.587584e-11 1.9903123e-10 -5.3877928e+09    9.6866399 
   47000    1146.3423    2089.2362 2.4286499e-10 -4.3833305e-11 1.9903169e-10 -4.1371518e+09    9.6655201 
   47200    1158.3013     2097.713 2.4539865e-10 -4.6367553e-11 1.9903109e-10 -9.1419503e+08    9.6539446 
   47400    1161.8875    2098.0477 2.4615842e-10 -4.7127407e-11 1.9903102e-10 -1.3456378e+09    9.6472365 
   47600    1156.8524    2093.2708 2.4509168e-10 -4.6059779e-11 1.990319e-10 -3.2336245e+09    9.6323456 
   47800    1157.8572    2090.3774 2.4530457e-10 -4.6273614e-11 1.9903095e-10 -2.8136679e+09     9.620569 
   48000    1149.6957     2089.944 2.4357544e-10 -4.4544519e-11 1.9903093e-10 -3.2014313e+09    9.6082637 
   48200    1151.6424    2088.8275 2.4398788e-10 -4.4956307e-11 1.9903158e-10 -5.7006715e+09    9.5854781 
   48400    1155.5824    2094.0341 2.4482261e-10 -4.5791712e-11 1.990309e-10 -4.3124154e+09     9.556867 
   48600    1146.3241    2089.9812 2.4286114e-10 -4.3829758e-11 1.9903138e-10 -6.0318024e+09    9.5380664 
   48800    1156.4481     2096.318 2.4500602e-10 -4.5974855e-11 1.9903116e-10 -4.7572199e+09    9.5094325 
   49000    1155.0512     2092.315 2.4471007e-10 -4.5679038e-11 1.9903103e-10 -2.2063185e+09    9.4932349 
   49200    1149.2991    2088.8251 2.4349143e-10 -4.4459364e-11 1.9903207e-10 -2.9543874e+09    9.4826364 
   49400     1156.986    2093.7724 2.4511998e-10 -4.6088507e-11 1.9903147e-10     42842317    9.4748293 
   49600    1149.2417    2092.8924 2.4347927e-10 -4.4448452e-11 1.9903082e-10 -2.2297396e+09    9.4668353 
   49800    1154.9181    2094.5343 2.4468188e-10 -4.5649271e-11 1.9903261e-10 -4.2941669e+09    9.4540225 
   50000    1153.2929    2094.0461 2.4433756e-10 -4.5306846e-11 1.9903071e-10 -5.1656779e+09    9.4344051 
   50200    1148.4655    2090.6911 2.4331481e-10 -4.4283106e-11 1.9903171e-10 -4.3628938e+09    9.4137272 
   50400    1160.2732    2098.5032 2.4581642e-10 -4.6784786e-11 1.9903163e-10 -6.5193454e+09    9.3859126 
   50600    1171.8999    2097.2479 2.4827965e-10 -4.9248391e-11 1.9903126e-10 -3.822907e+09     9.362003 
   50800    1158.7393    2095.7072 2.4549145e-10 -4.6459894e-11 1.9903155e-10 -5.7729851e+09    9.3420369 
   51000    1157.0949    2088.5359 2.4514306e-10 -4.6113607e-11 1.9902945e-10 -3.7488614e+09    9.3165593 
   51200    1158.3098    2093.7789 2.4540045e-10 -4.6369145e-11 1.9903131e-10 -5.2868728e+09    9.2940603 
   51400    1166.7894    2091.3587 2.4719694e-10 -4.8165878e-11 1.9903106e-10 -6.3012905e+09    9.2670302 
   51600    1156.8348       2092.9 2.4508794e-10 -4.605751e-11 1.9903043e-10 -8.3030646e+09      9.23961 
   51800    1151.5279    2091.2464 2.4396364e-10 -4.4931353e-11 1.9903228e-10 -6.8566948e+09    9.2014864 
   52000    1149.0517    2092.0239 2.4343901e-10 -4.4407887e-11 1.9903113e-10 -1.0686206e+10    9.1597652 
   52200    1160.7891    2090.3611 2.4592571e-10 -4.6895381e-11 1.9903033e-10 -1.0320794e+10    9.1147087 
   52400    1154.3371    2089.8285 2.4455879e-10 -4.5528098e-11 1.9903069e-10 -8.5517868e+09    9.0738942 
   52600    1159.2421    2095.1333 2.4559796e-10 -4.6567095e-11 1.9903086e-10 -8.7640762e+09    9.0347616 
   52800    1145.0872    2086.4511 2.425991e-10 -4.3567824e-11 1.9903127e-10 -7.0376855e+09    9.0009531 
   53000      1157.37    2093.5234 2.4520134e-10 -4.6170799e-11 1.9903054e-10 2.8527879e+08    8.9826903 
   53200    1158.1309    2096.3569 2.4536255e-10 -4.6331652e-11 1.990309e-10 -2.3874621e+09     8.981625 
   53400    1151.9975    2094.8108 2.4406312e-10 -4.5032229e-11 1.9903089e-10 -2.0542747e+09    8.9669448 
   53600    1154.9298    2092.1961 2.4468435e-10 -4.5653394e-11 1.9903096e-10 -2.3276222e+09    8.9563745 
   53800    1161.0691     2095.382 2.4598502e-10 -4.6953942e-11 1.9903108e-10 1.0819888e+09    8.9503503 
   54000    1162.2899    2091.8407 2.4624367e-10 -4.7212446e-11 1.9903122e-10 1.7920045e+09    8.9585129 
   54200    1159.6597    2092.6736 2.4568643e-10 -4.6655536e-11 1.990309e-10 -1.0436029e+09    8.9632951 
   54400    1153.6636    2095.1425 2.4441609e-10 -4.5384422e-11 1.9903167e-10 -1.3598656e+09    8.9550317 
   54600    1156.3508    2094.6623 2.4498541e-10 -4.5953491e-11 1.9903192e-10 -3.9712117e+09    8.9466087 
   54800    1159.9397    2095.4284 2.4574576e-10 -4.6714819e-11 1.9903094e-10 -5.3848637e+08    8.9332107 
   55000    1160.2184     2091.981 2.458048e-10 -4.6773703e-11 1.990311e-10 -1.8603658e+09     8.929953 
   55200    1163.7817    2094.9847 2.4655972e-10 -4.7527796e-11 1.9903193e-10 9.7813637e+08    8.9249901 
   55400     1157.333    2095.7317 2.4519351e-10 -4.616235e-11 1.9903116e-10 4.3225026e+08    8.9361206 
   55600    1152.3068    2093.8199 2.4412864e-10 -4.5097724e-11 1.9903092e-10 -2.7125332e+09    8.9293094 
   55800     1146.505    2091.6582 2.4289948e-10 -4.3868351e-11 1.9903113e-10 -3.4317007e+09    8.9223684 
   56000    1157.0119    2089.5248 2.4512546e-10 -4.609414e-11 1.9903132e-10 -2.5817406e+09    8.9075786 
   56200     1153.827    2091.2703 2.4445071e-10 -4.5419165e-11 1.9903155e-10 -2.9179187e+09    8.8962413 
   56400    1166.0981    2094.3485 2.4705048e-10 -4.8019374e-11 1.990311e-10 -8.4211263e+08    8.8882395 
   56600    1154.2306    2094.1765 2.4453623e-10 -4.5505691e-11 1.9903054e-10 1.7192572e+08    8.8859572 
   56800    1155.6493    2095.4271 2.4483679e-10 -4.5805657e-11 1.9903114e-10 -3.0868149e+09    8.8793742 
   57000    1149.3927    2088.9194 2.4351127e-10 -4.4479724e-11 1.9903154e-10 -5.0259896e+09    8.8572986 
   57200    1153.8848    2095.8109 2.4446296e-10 -4.5431669e-11 1.9903129e-10 -4.9443358e+09    8.8370908 
   57400    1162.0867    2092.9606 2.4620063e-10 -4.7169023e-11 1.9903161e-10 -5.5822589e+09    8.8119079 
   57600    1156.2166    2095.4712 2.4495697e-10 -4.5925796e-11 1.9903117e-10 -3.36965e+09    8.7941537 
   57800    1153.2684    2091.3689 2.4433238e-10 -4.5300935e-11 1.9903145e-10 -7.3296333e+09    8.7671051 
   58000    1158.6584    2093.5058 2.454743e-10 -4.6443158e-11 1.9903114e-10 -8.9770381e+09    8.7295431 
   58200    1167.5071    2094.8295 2.4734898e-10 -4.8318111e-11 1.9903087e-10 -7.2439393e+09    8.6957471 
   58400    1169.4514     2093.646 2.4776092e-10 -4.873005e-11 1.9903087e-10 -7.9446929e+09    8.6575068 
   58600     1155.364    2094.2604 2.4477635e-10 -4.5744249e-11 1.990321e-10 -2.2361914e+09    8.6315155 
   58800     1154.631    2097.7084 2.4462106e-10 -4.5589476e-11 1.9903158e-10 -3.8331602e+08    8.6248515 
   59000     1157.513    2092.1538 2.4523164e-10 -4.6200654e-11 1.9903098e-10 7.0830352e+08    8.6303848 
   59200    1157.4921    2094.8557 2.452272e-10 -4.619592e-11 1.9903129e-10 2.842098e+09    8.6392597 
   59400     1154.452    2090.6705 2.4458312e-10 -4.5551911e-11 1.9903121e-10 3.5654812e+08    8.6483414 
   59600    1149.9937     2094.776 2.4363858e-10 -4.4607757e-11 1.9903083e-10 2.2193116e+08    8.6480346 
   59800    1157.0544    2092.1888 2.4513447e-10 -4.6103277e-11 1.9903119e-10 -9.3121842e+08    8.6452844 
   60000    1157.2988    2092.1578 2.4518625e-10 -4.6154791e-11 1.9903146e-10 -1.6640559e+09     8.636684 
   60200    1164.5354    2095.8057 2.467194e-10 -4.7688255e-11 1.9903114e-10 -3.5959948e+09    8.6291574 
   60400    1161.0881    2096.2589 2.4598905e-10 -4.6957857e-11 1.9903119e-10 -8.8846063e+09    8.5980912 
   60600    1153.5664    2090.8917 2.4439551e-10 -4.5364542e-11 1.9903096e-10 -7.5159318e+09    8.5574373 
   60800    1157.8049    2093.1862 2.4529347e-10 -4.6262541e-11 1.9903093e-10 -5.0340666e+09     8.526117 
   61000    1150.5008    2089.4698 2.4374603e-10 -4.4714167e-11 1.9903187e-10 -7.8412411e+08    8.5168666 
   61200    1158.3379    2095.8496 2.454064e-10 -4.6374972e-11 1.9903143e-10 -4.6467579e+09    8.5035955 
   61400    1162.0069    2092.9776 2.4618372e-10 -4.715252e-11 1.990312e-10 -1.7995616e+09    8.4935579 
   61600    1159.6269    2091.9339 2.456795e-10 -4.6648068e-11 1.9903143e-10 -1.3670687e+08     8.486706 
   61800    1154.6403    2093.5172 2.4462301e-10 -4.559295e-11 1.9903006e-10     10693522     8.479802 
   62000    1166.4629    2095.1194 2.4712776e-10 -4.809729e-11 1.9903047e-10 -1.3384313e+09     8.484098 
   62200    1163.7709     2096.413 2.4655744e-10 -4.7526343e-11 1.990311e-10 4.1889163e+09    8.4918131 
   62400    1154.9972    2093.8764 2.4469863e-10 -4.5668074e-11 1.9903056e-10 -3.7072841e+09     8.499071 
   62600    1154.3217    2094.2809 2.4455552e-10 -4.5524451e-11 1.9903106e-10 -4.6089266e+09    8.4793319 
   62800     1149.612    2089.6249 2.4355771e-10 -4.4523705e-11 1.9903401e-10 -5.6931228e+09    8.4559645 
   63000    1159.2096    2090.8025 2.4559109e-10 -4.6560194e-11 1.9903089e-10 -5.7267789e+09    8.4294029 
   63200    1155.0781    2091.5311 2.4471576e-10 -4.5684708e-11 1.9903106e-10 -5.5040106e+08    8.4157743 
   63400    1145.3418    2086.5246 2.4265304e-10 -4.3621791e-11 1.9903125e-10 3.0183292e+09    8.4210904 
   63600    1157.6631    2093.4073 2.4526343e-10 -4.6231908e-11 1.9903152e-10 -9.4525761e+08    8.4304814 
   63800    1143.6967    2089.4716 2.423045e-10 -4.3273331e-11 1.9903117e-10 -2.8458478e+09    8.4218224 
   64000    1158.0871     2092.351 2.4535327e-10 -4.6322258e-11 1.9903102e-10 -3.8102038e+09    8.4035906 
   64200    1157.5924    2095.1931 2.4524845e-10 -4.6217563e-11 1.9903089e-10 -6.2366128e+09    8.3748559 
   64400    1155.8136    2091.4908 2.4487159e-10 -4.584115e-11 1.9903044e-10 -5.3867492e+09    8.3470306 
   64600    1151.8983    2087.8317 2.4404211e-10 -4.5009493e-11 1.9903261e-10 -9.5982024e+08    8.3351131 
   64800    1162.7645    2095.4029 2.4634422e-10 -4.7312991e-11 1.9903123e-10 -5.3870977e+09    8.3185717 
   65000    1163.3996    2095.2167 2.4647878e-10 -4.7448308e-11 1.9903047e-10 -3.6664035e+09    8.2994491 
   65200    1165.0601    2091.3543 2.4683056e-10 -4.7799554e-11 1.9903101e-10 -3.4125617e+08    8.2907671 
   65400    1158.7707    2094.3034 2.454981e-10 -4.6466917e-11 1.9903118e-10 -4.4162066e+09    8.2801447 
   65600    1154.9947    2092.4402 2.4469811e-10 -4.5666245e-11 1.9903187e-10 -5.8520267e+09     8.256593 
   65800    1161.0625    2093.1358 2.4598363e-10 -4.6951832e-11 1.990318e-10 -8.3764896e+09    8.2260956 
   66000    1164.0988     2093.789 2.4662691e-10 -4.7595201e-11 1.9903171e-10 -1.101328e+10    8.1814185 
   66200    1165.5645    2093.7567 2.4693744e-10 -4.7906562e-11 1.9903088e-10 -7.4275832e+09    8.1382143 
   66400    1156.2474    2089.3941 2.449635e-10 -4.5932265e-11 1.9903124e-10 -1.0239268e+10    8.0999828 
   66600    1154.5598     2098.173 2.4460597e-10 -4.5574656e-11 1.9903132e-10 -8.0533762e+09    8.0592244 
   66800    1156.8381    2092.0933 2.4508865e-10 -4.6057598e-11 1.9903106e-10 -5.2316468e+09    8.0307773 
   67000    1157.0556    2090.2437 2.4513474e-10 -4.6103928e-11 1.9903081e-10 -2.9893366e+09    8.0158658 
   67200    1150.6878    2091.3753 2.4378563e-10 -4.4754239e-11 1.9903139e-10 -1.7419771e+09    8.0071596 
   67400    1154.0216    2089.3179 2.4449195e-10 -4.5460234e-11 1.9903172e-10 -4.760566e+08    7.9995023 
   67600    1163.4121    2097.0928 2.4648143e-10 -4.7451303e-11 1.9903012e-10 3.5425998e+09    8.0078585 
   67800    1156.3934    2091.1544 2.4499443e-10 -4.5963492e-11 1.9903093e-10 4.0041688e+09    8.0170394 
   68000    1153.2057    2093.5009 2.4431909e-10 -4.5288308e-11 1.9903078e-10 7.5608736e+09    8.0454156 
   68200    1154.7515    2090.8037 2.4464657e-10 -4.5614855e-11 1.9903172e-10 6.6459758e+09    8.0799323 
   68400    1164.8517    2096.1833 2.4678642e-10 -4.7755826e-11 1.9903059e-10 1.1265878e+09    8.1042353 
   68600    1149.8957     2093.868 2.4361784e-10 -4.4586189e-11 1.9903165e-10 3.5081085e+09    8.1107106 
   68800    1161.7213    2091.9241 2.4612321e-10 -4.7092242e-11 1.9903097e-10 4.1108271e+09    8.1336719 
   69000    1158.0112    2093.2468 2.4533718e-10 -4.6305361e-11 1.9903182e-10 6.7860261e+09    8.1577617 
   69200    1162.0179    2093.4932 2.4618604e-10 -4.7155287e-11 1.9903075e-10 8.0210883e+09    8.1973665 
   69400    1161.1151    2096.4951 2.4599478e-10 -4.6963503e-11 1.9903127e-10 8.8804015e+08    8.2213145 
   69600    1154.8821    2090.7607 2.4467425e-10 -4.5643273e-11 1.9903097e-10 -7.5477957e+08    8.2292054 
   69800    1161.4511    2097.5242 2.4606596e-10 -4.7034929e-11 1.9903103e-10 -2.0205973e+09    8.2214074 
   70000    1163.3503    2094.9759 2.4646833e-10 -4.7436793e-11 1.9903154e-10 -2.7684924e+09     8.205297 
   70200    1160.4838    2097.3754 2.4586104e-10 -4.6830256e-11 1.9903078e-10 -5.439748e+09    8.1926016 
   70400    1162.2409    2094.7499 2.462333e-10 -4.7202442e-11 1.9903085e-10 -2.1039377e+09    8.1702901 
   70600    1157.6428    2092.5244 2.4525914e-10 -4.6227793e-11 1.9903135e-10 -2.7156797e+08    8.1624759 
   70800    1153.0001    2090.5712 2.4427553e-10 -4.5244338e-11 1.9903119e-10 5.3292215e+09    8.1727265 
   71000    1152.6146    2089.9888 2.4419385e-10 -4.5163192e-11 1.9903066e-10 3.9113639e+09    8.1933069 
   71200    1163.4373    2094.6617 2.4648677e-10 -4.7455413e-11 1.9903136e-10 7.7347107e+09     8.216086 
   71400    1156.1633    2091.4957 2.4494569e-10 -4.5914213e-11 1.9903148e-10 1.1902788e+10    8.2687365 
   71600    1163.5059    2096.6103 2.465013e-10 -4.7470302e-11 1.9903099e-10 8.9106953e+09    8.3152125 
   71800    1164.0175    2095.5753 2.4660968e-10 -4.7578544e-11 1.9903114e-10 6.3198443e+09    8.3530369 
   72000    1154.6094    2095.0834 2.4461649e-10 -4.5584985e-11 1.990315e-10  1.12449e+10    8.3924257 
   72200    1164.5229    2092.6416 2.4671676e-10 -4.7685894e-11 1.9903087e-10 9.5263668e+09    8.4483727 
   72400    1167.1062    2093.5838 2.4726406e-10 -4.823346e-11 1.990306e-10 6.9848694e+09    8.4883558 
   72600     1152.356    2089.5617 2.4413906e-10 -4.5106666e-11 1.9903239e-10 1.0335621e+10    8.5223323 
   72800     1160.825    2096.9949 2.4593331e-10 -4.6901774e-11 1.9903154e-10 9.1934685e+09    8.5654393 
   73000    1165.3255    2095.9988 2.4688681e-10 -4.7855957e-11 1.9903085e-10 7.7625955e+09     8.609822 
   73200    1157.8767    2091.2603 2.453087e-10 -4.627794e-11 1.9903075e-10 3.5120237e+09    8.6325994 
   73400    1151.8485    2088.3699 2.4403156e-10 -4.4999786e-11 1.9903177e-10 4.8517862e+09    8.6447961 
   73600    1162.7236    2089.2619 2.4633555e-10 -4.7304408e-11 1.9903114e-10  -3.0867e+08     8.654799 
   73800    1159.0869    2093.3247 2.4556509e-10 -4.6534085e-11  1.99031e-10 7.7440805e+08    8.6543038 
   74000    1154.7909    2092.6968 2.4465492e-10 -4.5623779e-11 1.9903114e-10 -1.8664503e+09    8.6459301 
   74200    1154.6617    2093.8204 2.4462755e-10 -4.5596754e-11 1.9903079e-10 -1.4894253e+09     8.639118 
   74400    1162.5198    2095.4476 2.4629237e-10 -4.726151e-11 1.9903086e-10 -1.2878614e+09    8.6343309 
   74600    1159.5193     2095.013 2.4565669e-10 -4.662616e-11 1.9903053e-10 -3.5448331e+09    8.6205091 
   74800    1147.7919    2089.8604 2.4317211e-10 -4.4140949e-11 1.9903116e-10 -7.8047852e+09    8.5865917 
   75000    1151.4563    2098.2671 2.4394846e-10 -4.4917587e-11 1.9903087e-10 -5.5020601e+09    8.5502116 
   75200    1161.8846    2092.5795 2.4615781e-10 -4.7126975e-11 1.9903083e-10 -1.5733747e+09    8.5363391 
   75400    1165.1985     2091.935 2.468599e-10 -4.782937e-11 1.9903053e-10 -4.0149409e+09    8.5225845 
   75600    1156.0405    2094.0438 2.4491967e-10 -4.5888866e-11 1.9903081e-10 -4.1300814e+09    8.4998124 
   75800      1154.58    2098.4111 2.4461025e-10 -4.5579709e-11 1.9903055e-10 -9.011078e+08    8.4856297 
   76000    1165.1143    2095.4633 2.4684205e-10 -4.7810941e-11 1.990311e-10 -2.199854e+09    8.4807302 
   76200    1156.0412    2092.8494 2.4491981e-10 -4.5888123e-11 1.9903169e-10 -6.0388179e+09    8.4652682 
   76400     1156.442    2090.4771 2.4500472e-10 -4.5972986e-11 1.9903174e-10 -8.25813e+09    8.4249958 
   76600    1153.5075    2087.8613 2.4438304e-10 -4.5350729e-11 1.9903231e-10 -3.3514989e+09    8.3974847 
   76800     1162.875    2092.2979 2.4636764e-10 -4.7334091e-11 1.9903355e-10 2.5278656e+09    8.3938756 
   77000    1158.7364    2089.9342 2.4549083e-10 -4.6460418e-11 1.9903041e-10 1.9280933e+09    8.4053029 
   77200    1162.5408    2093.1866 2.4629683e-10 -4.7265803e-11 1.9903102e-10 2.937833e+09    8.4195577 
   77400    1156.8493    2096.0695 2.4509103e-10 -4.6059767e-11 1.9903126e-10 6.6856024e+09    8.4423459 
   77600    1161.7901    2095.6804 2.4613778e-10 -4.7106836e-11 1.9903095e-10 7.9463092e+09    8.4742357 
   77800    1152.8085    2088.1151 2.4423494e-10 -4.5200065e-11 1.9903487e-10 4.493845e+09    8.5037477 
   78000    1155.9685    2094.8091 2.4490442e-10 -4.5873754e-11 1.9903066e-10 8.3873014e+09    8.5373439 
   78200    1155.9511    2092.6806 2.4490073e-10 -4.5869351e-11 1.9903138e-10 4.0250671e+09    8.5613846 
   78400    1164.7847    2097.4043 2.4677221e-10 -4.7741378e-11 1.9903084e-10 7.8669885e+09    8.5913761 
   78600    1156.7244    2091.9694 2.4506456e-10 -4.6033611e-11 1.9903095e-10 4.3224417e+09    8.6170182 
   78800    1160.1758    2094.2692 2.4579577e-10 -4.676459e-11 1.9903118e-10 -6.8398084e+08    8.6204339 
   79000    1167.7025    2096.8478 2.473904e-10 -4.8359115e-11 1.9903128e-10 -3.9303829e+09    8.6039137 
   79200    1153.5855    2088.1203 2.4439954e-10 -4.5368167e-11 1.9903138e-10 -2.4842166e+09    8.5914816 
   79400    1148.2521    2089.6943 2.4326962e-10 -4.4237945e-11 1.9903167e-10 -4.3687616e+09    8.5787318 
   79600    1163.3951    2097.4515 2.4647782e-10 -4.7446869e-11 1.9903095e-10 -3.6185535e+09    8.5649082 
   79800    1165.1967    2097.3647 2.4685951e-10 -4.782848e-11 1.9903103e-10 -2.8098145e+09    8.5483622 
   80000     1150.282    2091.1371 2.4369967e-10 -4.4667909e-11 1.9903177e-10 -1.5526294e+09    8.5399538 
   80200     1161.022      2096.96 2.4597506e-10 -4.6944301e-11 1.9903076e-10 -5.4863474e+09    8.5233133 
   80400    1162.1941    2091.1665 2.4622338e-10 -4.7191178e-11 1.990322e-10 -6.4041531e+09    8.4962497 
   80600    1159.8775    2093.9326 2.4573258e-10 -4.6701569e-11 1.9903101e-10 -9.2362822e+08    8.4856758 
   80800    1167.1501    2093.2107 2.4727337e-10 -4.824275e-11 1.9903062e-10 -2.1710327e+09    8.4794731 
   81000    1158.4871    2096.3034 2.4543802e-10 -4.6406447e-11 1.9903157e-10 3.1188807e+08    8.4759497 
   81200    1160.5954    2090.9085 2.4588467e-10 -4.6852919e-11 1.9903175e-10 -1.1783418e+09    8.4767014 
   81400    1165.4887    2094.9858 2.4692137e-10 -4.7890497e-11 1.9903088e-10    -65321820    8.4737237 
   81600    1155.7614    2095.7656 2.4486055e-10 -4.582982e-11 1.9903073e-10 1.0702816e+09    8.4783518 
   81800    1150.6222    2091.6208 2.4377174e-10 -4.4739664e-11 1.9903208e-10 -8.0873383e+08    8.4775958 
   82000    1159.8307    2088.8153 2.4572266e-10 -4.6690324e-11 1.9903233e-10 1.5067228e+09    8.4810975 
   82200    1159.9207    2092.4115 2.4574173e-10 -4.6710612e-11 1.9903112e-10 1.6009766e+08    8.4870334 
   82400    1156.3501    2094.7062 2.4498526e-10 -4.5954547e-11 1.9903071e-10 -1.2957877e+09    8.4885278 
   82600    1155.8711    2093.1635 2.4488378e-10 -4.5852606e-11 1.9903118e-10 2.5504259e+09    8.4937561 
   82800    1157.6463    2092.5992 2.4525987e-10 -4.6227988e-11 1.9903189e-10 1.2718785e+09    8.5045157 
   83000    1161.1675    2095.5396 2.4600587e-10 -4.6974383e-11 1.9903149e-10 1.2317606e+09    8.5116138 
   83200    1165.1965    2095.9594 2.4685946e-10 -4.7828217e-11 1.9903124e-10 2.2171164e+09    8.5193312 
   83400    1150.8831    2092.2538 2.4382703e-10 -4.4796655e-11 1.9903037e-10 1.4894849e+09    8.5244476 
   83600     1150.006    2086.6699 2.436412e-10 -4.4609183e-11 1.9903202e-10 3.6611453e+09    8.5387652 
   83800    1166.2365    2092.0879 2.4707981e-10 -4.8048359e-11 1.9903145e-10 6.3657543e+09    8.5566627 
   84000    1158.1781    2094.0925 2.4537255e-10 -4.6341091e-11 1.9903145e-10 2.8386112e+08    8.5732183 
   84200    1154.9663    2094.5566 2.446921e-10 -4.5659631e-11 1.9903247e-10 2.981034e+09    8.5790501 
   84400    1156.2958    2093.6861 2.4497376e-10 -4.594211e-11 1.9903165e-10 2.4116493e+09    8.5884514 
   84600    1158.2907    2093.7744 2.453964e-10 -4.6364798e-11 1.9903161e-10 1.4784416e+09    8.5935933 
   84800    1155.2305    2094.3937 2.4474805e-10 -4.5717068e-11 1.9903098e-10 3.1848156e+09    8.6010414 
   85000     1158.681    2094.8802 2.4547908e-10 -4.6447632e-11 1.9903145e-10 6.3855228e+09     8.624807 
   85200    1160.9784     2093.473 2.4596582e-10 -4.6933084e-11 1.9903274e-10 1.9085841e+09    8.6412868 
   85400    1154.7534    2097.1117 2.4464697e-10 -4.5617105e-11 1.9902987e-10 -1.9521942e+09    8.6379213 
   85600    1154.2176    2095.0398 2.4453347e-10 -4.5501622e-11 1.9903184e-10 -1.535942e+09    8.6284054 
   85800       1160.1    2094.6995 2.4577972e-10 -4.674876e-11 1.9903096e-10 1.3282272e+09    8.6245437 
   86000    1153.4328    2094.8487 2.4436719e-10 -4.5335985e-11 1.9903121e-10 7.3879103e+08    8.6378118 
   86200    1157.4549    2094.9999 2.4521932e-10 -4.6188247e-11 1.9903107e-10 -2.6831933e+08    8.6365477 
   86400    1154.6747    2094.5179 2.4463031e-10 -4.5599105e-11 1.9903121e-10 -1.5413567e+09    8.6376392 
   86600    1154.8584    2090.3881 2.4466923e-10 -4.5638207e-11 1.9903102e-10 -1.99158e+09    8.6311095 
   86800    1150.3143    2089.8774 2.437065e-10 -4.4675423e-11 1.9903108e-10 -2.708633e+09    8.6191704 
   87000    1158.0715    2097.0452 2.4534997e-10 -4.6318636e-11 1.9903133e-10 -3.1624156e+09    8.6084984 
   87200    1157.6216    2096.1867 2.4525464e-10 -4.6222946e-11 1.9903169e-10 -4.0896836e+09    8.5879819 
   87400    1159.1697    2092.7067 2.4558263e-10 -4.6551664e-11 1.9903096e-10 -6.2837818e+09    8.5624796 
   87600    1163.3277    2095.7428 2.4646354e-10 -4.7432852e-11 1.9903069e-10 -3.6395506e+09    8.5403773 
   87800    1157.2235    2093.6669 2.451703e-10 -4.6138407e-11 1.9903189e-10 -6.0879819e+08    8.5289607 
   88000    1161.9434    2094.6942 2.4617026e-10 -4.7139044e-11 1.9903122e-10 -5.1667597e+08    8.5219317 
   88200    1147.6006    2091.2596 2.4313158e-10 -4.4100629e-11 1.9903095e-10 -7.0924622e+08     8.519275 
   88400    1159.6893    2095.8003 2.456927e-10 -4.6662035e-11 1.9903067e-10 -2.3337022e+09    8.5059711 
   88600    1160.9839     2092.951 2.4596697e-10 -4.6936016e-11 1.9903096e-10 1.0940477e+09    8.5011875 
   88800    1149.7984    2094.6455 2.4359722e-10 -4.4567376e-11 1.9902984e-10 4.5215679e+09    8.5101364 
   89000    1163.0193     2092.584 2.463982e-10 -4.7367031e-11 1.9903117e-10 3.6501862e+09    8.5263487 
   89200    1155.6783    2092.8388 2.4484293e-10 -4.5811368e-11 1.9903156e-10 8.2345047e+09    8.5520358 
   89400    1161.7395    2093.6521 2.4612706e-10 -4.7095791e-11 1.9903127e-10 5.341365e+09     8.590174 
   89600      1155.62    2097.1581 2.4483059e-10 -4.5799629e-11 1.9903096e-10 8.2327503e+09    8.6196058 
   89800    1148.4872    2090.2062 2.4331942e-10 -4.4288142e-11 1.9903128e-10 4.0777425e+09    8.6490932 
   90000     1153.938    2091.3904 2.4447423e-10 -4.5443707e-11 1.9903052e-10 2.5968919e+09     8.666634 
   90200    1161.3779    2095.4469 2.4605046e-10 -4.7018961e-11 1.9903149e-10 2.3387755e+09    8.6742482 
   90400    1149.5597    2093.1809 2.4354663e-10 -4.4516262e-11 1.9903037e-10    -55193018    8.6768246 
   90600    1150.3866    2091.1214 2.4372182e-10 -4.4688408e-11 1.9903342e-10 -8.4011831e+08    8.6705061 
   90800    1158.9858    2095.8358 2.4554367e-10 -4.651235e-11 1.9903132e-10 1.5014712e+09    8.6720365 
   91000    1157.2806    2091.2095 2.451824e-10 -4.6151713e-11 1.9903069e-10 1.3591667e+09    8.6793275 
   91200    1149.7179    2086.6916 2.4358016e-10 -4.4546156e-11  1.99034e-10 1.8587125e+09    8.6936284 
   91400    1156.9072    2095.1678 2.4510329e-10 -4.6072649e-11 1.9903064e-10 2.6975388e+09    8.7038671 
   91600     1155.371    2093.3193 2.4477783e-10 -4.5746319e-11 1.9903151e-10 -2.9204976e+09    8.7032727 
   91800    1161.1358    2094.5867 2.4599916e-10 -4.6967522e-11 1.9903163e-10 -3.965525e+09    8.6851258 
   92000    1163.0385    2098.3823 2.4640228e-10 -4.7370937e-11 1.9903134e-10 -2.983401e+09    8.6686605 
   92200    1152.2341    2093.0007 2.4411324e-10 -4.5082306e-11 1.9903093e-10 -2.5839492e+09    8.6536621 
   92400    1156.7736    2091.4559 2.4507498e-10 -4.6042697e-11 1.9903228e-10 -2.9143492e+09    8.6415589 
   92600    1158.1578     2093.887 2.4536824e-10 -4.6334944e-11 1.9903329e-10 -3.8398434e+09    8.6271074 
   92800    1155.1434    2087.6569 2.4472961e-10 -4.5695803e-11 1.9903381e-10 -1.5050846e+09    8.6208277 
   93000    1160.8865    2093.2014 2.4594634e-10 -4.6914111e-11 1.9903223e-10 -3.5096012e+08    8.6202756 
   93200    1154.3758    2094.6164 2.4456697e-10 -4.5534444e-11 1.9903253e-10 -7.4214066e+08     8.614095 
   93400    1151.5758    2091.0622 2.4397377e-10 -4.4941128e-11 1.9903264e-10 3.8191715e+09    8.6195634 
   93600    1160.7794    2089.8968 2.4592366e-10 -4.6890783e-11 1.9903288e-10 2.0725559e+09    8.6352909 
   93800    1155.5788    2088.7381 2.4482185e-10 -4.5789195e-11 1.9903266e-10     29270874    8.6408455 
   94000    1158.4562    2095.0142 2.4543147e-10 -4.6398843e-11 1.9903263e-10 -1.1292318e+09    8.6399292 
   94200    1156.6629    2088.9468 2.4505152e-10 -4.6019751e-11 1.9903177e-10 1.9087638e+09    8.6459435 
   94400    1155.5595    2091.0166 2.4481776e-10 -4.5784752e-11  1.99033e-10 4.8829473e+09    8.6615774 
   94600    1157.8228    2091.3899 2.4529726e-10 -4.6264235e-11 1.9903303e-10 6.2385009e+09    8.6877726 
   94800    1156.1915    2093.8589 2.4495166e-10 -4.5918668e-11  1.99033e-10 3.2955071e+09    8.7128717 
   95000    1167.6574    2094.1592 2.4738082e-10 -4.8348243e-11 1.9903258e-10 2.9828212e+09    8.7292033 
   95200    1155.3328    2094.7236 2.4476973e-10 -4.5735354e-11 1.9903438e-10     89095596    8.7362863 
   95400    1155.1215    2094.8331 2.4472497e-10 -4.5690683e-11 1.9903429e-10 1.2208235e+09    8.7353669 
   95600    1158.7186    2095.8891 2.4548705e-10 -4.6454693e-11 1.9903236e-10 8.170768e+08    8.7440161 
   95800    1164.3829    2092.7759 2.4668709e-10 -4.7654452e-11 1.9903264e-10 1.9956831e+09     8.749471 
   96000    1155.1987    2089.5661 2.4474132e-10 -4.5708689e-11 1.9903263e-10 1.8371668e+09    8.7615086 
   96200    1148.6788       2091.1 2.4336002e-10 -4.4326742e-11 1.9903327e-10    -16296593    8.7630622 
   96400    1151.1202    2089.1602 2.4387726e-10 -4.4844446e-11 1.9903281e-10 -2.3350305e+09     8.758346 
   96600    1157.1065    2090.7309 2.4514551e-10 -4.6112711e-11 1.990328e-10 -3.3833263e+09    8.7391755 
   96800    1150.0995    2097.4231  2.43661e-10 -4.4628401e-11 1.990326e-10 8.2898432e+08    8.7317767 
   97000    1151.4976    2094.7817 2.439572e-10 -4.4924015e-11 1.9903318e-10 4.0420352e+09    8.7401014 
   97200    1163.5999    2098.1623 2.4652122e-10 -4.7488354e-11 1.9903286e-10 4.7756044e+09    8.7616411 
   97400    1161.9018    2097.4028 2.4616145e-10 -4.7128908e-11 1.9903254e-10 3.4293358e+09    8.7775366 
   97600    1165.3116    2096.4395 2.4688386e-10 -4.7851245e-11 1.9903261e-10 7.4341036e+09    8.8016403 
   97800    1157.7343    2098.2899 2.4527852e-10 -4.624573e-11 1.990328e-10 5.9756867e+09    8.8343786 
   98000    1161.4996    2095.3453 2.4607624e-10 -4.7043395e-11 1.9903284e-10 4.3136711e+09     8.857583 
   98200    1149.5608    2096.9203 2.4354687e-10 -4.4514778e-11 1.9903209e-10 3.1764724e+09    8.8746568 
   98400    1154.3607    2099.6769 2.4456378e-10 -4.5531076e-11 1.9903271e-10 -2.2970947e+09    8.8765283 
   98600    1149.1446    2090.7006 2.434587e-10 -4.4425536e-11 1.9903317e-10 -1.1232997e+09    8.8720884 
   98800    1154.2529    2088.7143 2.4454094e-10 -4.5507461e-11 1.9903348e-10 2.1336418e+09    8.8788901 
   99000    1162.0877    2096.2697 2.4620082e-10 -4.7167697e-11 1.9903313e-10 4.5560427e+08    8.8884743 
   99200    1163.2077    2087.6728 2.4643811e-10 -4.7405165e-11 1.9903294e-10 -3.3340275e+09    8.8843904 
   99400    1163.5326    2094.5553 2.4650696e-10 -4.7473909e-11 1.9903305e-10 -3.1442708e+09    8.8683298 
   99600    1164.1688    2097.8291 2.4664174e-10 -4.7609317e-11 1.9903242e-10 -8.8123389e+08    8.8593742 
   99800      1165.12    2094.7224 2.4684326e-10 -4.781013e-11 1.9903313e-10 6.3244453e+08    8.8584073 
  100000    1155.9593     2095.269 2.4490246e-10 -4.5869489e-11 1.9903297e-10 1.9241616e+09    8.8641245 
  100200    1162.0386    2089.2752 2.4619043e-10 -4.7157881e-11 1.9903255e-10 1.0139468e+09    8.8734976 
  100400    1167.0954    2095.8885 2.4726178e-10 -4.8229011e-11 1.9903276e-10 -3.1827698e+09    8.8690702 
  100600    1167.8852    2094.3429 2.4742909e-10 -4.8396663e-11 1.9903243e-10 -1.284645e+09    8.8592536 
  100800    1149.5048    2094.1425 2.4353501e-10 -4.4502544e-11 1.9903247e-10 -6.1041608e+08    8.8547315 
  101000    1159.3506     2094.234 2.4562095e-10 -4.6587869e-11 1.9903308e-10     93310104    8.8521422 
  101200    1156.1488    2095.1695 2.4494261e-10 -4.5909783e-11 1.9903283e-10 3.2332039e+09    8.8551614 
  101400    1161.0275    2093.6769 2.4597621e-10 -4.6942851e-11 1.9903336e-10 6.2403494e+09    8.8751868 
  101600    1165.8231     2095.176 2.4699221e-10 -4.7958571e-11 1.9903364e-10 1.5237911e+09    8.8950235 
  101800    1159.6606    2094.9335 2.4568663e-10 -4.6654512e-11 1.9903212e-10 9.9299496e+08    8.9006519 
  102000    1156.7762    2095.1771 2.4507553e-10 -4.6042583e-11 1.9903294e-10 2.5501512e+09     8.908629 
  102200    1154.6415     2090.246 2.4462327e-10 -4.5590407e-11 1.9903286e-10 2.9644008e+09    8.9238577 
  102400    1162.4064    2092.9246 2.4626836e-10 -4.7235696e-11 1.9903266e-10 1.8399847e+09    8.9320659 
  102600    1160.7336    2091.6001 2.4591396e-10 -4.6881684e-11 1.9903228e-10 4.5013359e+09    8.9508522 
  102800    1163.9806    2093.5527 2.4660186e-10 -4.7568708e-11 1.9903315e-10 3.3734025e+09    8.9738166 
  103000    1153.8411    2087.9871 2.4445371e-10 -4.5421247e-11 1.9903246e-10 -1.9267974e+09    8.9812515 
  103200      1156.43    2092.1027 2.450022e-10 -4.5969336e-11 1.9903286e-10 -5.0332163e+09    8.9689053 
  103400     1152.151    2098.4048 2.4409563e-10 -4.506114e-11 1.9903449e-10 -2.9443382e+09    8.9503784 
  103600    1161.3276    2092.9051 2.4603981e-10 -4.7007277e-11 1.9903253e-10 -5.8053054e+09    8.9287203 
  103800    1161.9667    2095.5455 2.461752e-10 -4.7142691e-11 1.9903251e-10 -4.4865247e+09    8.9049245 
  104000    1156.5689    2089.6498 2.4503162e-10 -4.5998411e-11 1.990332e-10 -2.9355366e+09    8.8907943 
  104200    1159.0655    2090.8981 2.4556055e-10 -4.6526577e-11 1.9903397e-10 -1.068299e+09    8.8785922 
  104400    1154.6141    2092.4085 2.4461748e-10 -4.558456e-11 1.9903292e-10 3.9368492e+09    8.8909098 
  104600    1163.2728    2100.5694 2.4645192e-10 -4.7419436e-11 1.9903248e-10 3.8639672e+09    8.9089917 
  104800    1153.6986    2090.9457 2.4442351e-10 -4.5390872e-11 1.9903264e-10 5.1417114e+09    8.9226672 
  105000     1154.525    2095.5364 2.445986e-10 -4.5566155e-11 1.9903244e-10 9.9142413e+09    8.9550522 
  105200    1156.8512    2093.5935 2.4509143e-10 -4.6058787e-11 1.9903264e-10 1.4963687e+10     9.012752 
  105400    1160.7766    2094.7951 2.4592307e-10 -4.6890333e-11 1.9903274e-10 1.6207451e+10    9.0933298 
  105600    1153.2166    2089.2101 2.443214e-10 -4.5287357e-11 1.9903404e-10 5.9510263e+09    9.1392718 
  105800    1154.4894    2093.4835 2.4459105e-10 -4.555905e-11  1.99032e-10 3.2975741e+09    9.1639312 
  106000    1156.7034    2096.2736 2.4506011e-10 -4.6026806e-11 1.9903331e-10 1.1059998e+09    9.1775222 
  106200    1157.2654    2091.4722 2.4517919e-10 -4.6146447e-11 1.9903274e-10 2.721698e+09    9.1823116 
  106400    1153.0016    2093.1953 2.4427584e-10 -4.5242952e-11 1.9903289e-10 1.6127011e+09    9.1945543 
  106600    1155.3906    2093.7737 2.4478199e-10 -4.5748954e-11 1.9903303e-10 3.7408634e+08    9.2038926 
  106800    1159.4652    2092.8806 2.4564522e-10 -4.6612519e-11 1.990327e-10 6.6204978e+08    9.2038964 
  107000    1162.2438    2092.9318 2.462339e-10 -4.7201593e-11 1.990323e-10 -2.333807e+09    9.1991722 
  107200    1145.9158    2093.0232 2.4277464e-10 -4.3741521e-11 1.9903312e-10 -3.9781867e+08    9.1877448 
  107400    1159.1563    2092.4329 2.4557979e-10 -4.6546877e-11 1.9903291e-10 -1.5383629e+09    9.1835239 
  107600    1160.6534    2093.7625 2.4589696e-10 -4.6863718e-11 1.9903324e-10 -2.9070145e+09    9.1660579 
  107800    1158.1145    2095.0514 2.4535907e-10 -4.632642e-11 1.9903265e-10 -4.8818489e+09    9.1514286 
  108000    1151.2318    2090.1598 2.439009e-10 -4.4868617e-11 1.9903228e-10 -5.7502749e+09     9.135369 
  108200    1159.0878    2090.3214 2.4556527e-10 -4.6533313e-11 1.9903196e-10 -9.7014308e+09    9.0988171 
  108400    1147.5153    2088.4917 2.4311351e-10 -4.4080538e-11 1.9903297e-10 -1.0270191e+10    9.0541211 
  108600    1165.4348    2094.1463 2.4690996e-10 -4.7877476e-11 1.9903248e-10 -1.2625853e+10     8.998987 
  108800    1154.8819    2092.2205 2.446742e-10 -4.5642249e-11 1.9903196e-10 -1.0655411e+10    8.9472154 
  109000    1154.9945    2092.7565 2.4469806e-10 -4.5664805e-11 1.9903325e-10 -1.2934441e+10    8.8908795 
  109200    1147.6807    2095.5094 2.4314856e-10 -4.411551e-11 1.9903305e-10 -9.6360428e+09    8.8378905 
  109400    1156.9725    2095.5752 2.4511712e-10 -4.6084347e-11 1.9903278e-10 -1.0083168e+10    8.7880809 
  109600    1154.9866    2087.6237 2.4469638e-10 -4.5663292e-11 1.9903309e-10 -1.1461829e+10    8.7376309 
  109800    1152.8746    2096.4522 2.4424893e-10 -4.5216774e-11 1.9903216e-10 -1.3690453e+10    8.6830595 
  110000    1163.6231    2093.1745 2.4652613e-10 -4.7493559e-11 1.9903257e-10 -1.3405964e+10     8.623667 
  110200    1152.5146    2093.5489 2.4417267e-10 -4.5139796e-11 1.9903287e-10 -1.0071458e+10    8.5679468 
  110400    1153.7325    2093.3937 2.4443069e-10 -4.5396897e-11 1.9903379e-10 -4.8625574e+09    8.5352038 
  110600    1161.4438    2094.1769 2.4606441e-10 -4.7030163e-11 1.9903425e-10 -8.7043616e+09    8.5088581 
  110800    1156.4297    2091.7489 2.4500213e-10 -4.5966971e-11 1.9903516e-10 -8.6602488e+09    8.4713425 
  111000    1160.5288     2092.828 2.4587056e-10 -4.6836688e-11 1.9903387e-10 -6.9244696e+09    8.4340206 
  111200    1156.8229    2091.8352 2.4508542e-10 -4.6050575e-11 1.9903485e-10 -6.2692903e+09    8.4015232 
  111400    1166.5229    2095.4238 2.4714049e-10 -4.8106508e-11 1.9903398e-10 -2.3220755e+09    8.3837003 
  111600    1160.8994    2096.8507 2.4594909e-10 -4.6914683e-11 1.990344e-10 9.8869022e+08    8.3827573 
  111800    1158.0597    2094.8164 2.4534746e-10 -4.6313561e-11 1.990339e-10 5.4515963e+08    8.3875186 
  112000    1158.5809    2094.0666 2.4545787e-10 -4.6424059e-11 1.9903381e-10 2.1035389e+09    8.3900983 
  112200    1159.9908    2091.4477 2.4575658e-10 -4.672306e-11 1.9903352e-10 1.9354272e+09    8.4009757 
  112400    1150.9344    2090.5151 2.438379e-10 -4.4803607e-11 1.9903429e-10 6.666951e+09    8.4210992 
  112600    1149.1039    2092.1274 2.4345007e-10 -4.441509e-11 1.9903498e-10 8.3912927e+09    8.4596754 
  112800    1160.0713    2094.3233 2.4577364e-10 -4.6739212e-11 1.9903443e-10 4.2681608e+09    8.4939106 
  113000    1160.5126     2094.353 2.4586713e-10 -4.6833052e-11 1.9903408e-10 1.2318375e+08    8.5006743 
  113200    1160.7227    2091.9537 2.4591165e-10 -4.6876953e-11 1.990347e-10 -8.5483729e+08    8.4991157 
  113400    1153.1089    2092.3102 2.4429859e-10 -4.5264656e-11 1.9903393e-10 3.4977131e+08    8.4992741 
  113600    1154.9823    2093.1499 2.4469548e-10 -4.5660819e-11 1.9903466e-10 -1.0086262e+09    8.5013355 
  113800    1153.0966    2094.6007 2.4429597e-10 -4.5262367e-11 1.990336e-10 4.0536694e+09    8.5127448 
  114000    1161.9311    2092.3308 2.4616767e-10 -4.7133499e-11 1.9903417e-10 5.5243157e+09    8.5319585 
  114200    1156.7107    2092.5906 2.4506165e-10 -4.6027524e-11 1.9903413e-10 8.8989924e+09    8.5692502 
  114400    1152.1053    2091.0433 2.4408595e-10 -4.5051573e-11 1.9903438e-10 5.6560097e+09     8.602326 
  114600    1165.1625    2093.1056 2.4685227e-10 -4.781805e-11 1.9903422e-10 8.6215409e+09    8.6386285 
  114800    1159.9984    2094.7852 2.4575819e-10 -4.6723992e-11 1.990342e-10 7.4081025e+09    8.6770891 
  115000    1156.1692    2097.8121 2.4494693e-10 -4.5913138e-11 1.9903379e-10 8.7181001e+09    8.7107374 
  115200    1158.6733    2095.3145 2.4547745e-10 -4.6443259e-11 1.9903419e-10 -1.3556104e+09    8.7280778 
  115400    1162.3597    2094.4367 2.4625846e-10 -4.7224593e-11 1.9903387e-10 -3.6061359e+09    8.7180695 
  115600    1160.0002    2092.7883 2.4575858e-10 -4.6724433e-11 1.9903415e-10 -6.9224252e+09    8.6948135 
  115800    1157.6169    2091.1661 2.4525365e-10 -4.6219176e-11 1.9903447e-10 -1.2964473e+10    8.6417175 
  116000    1158.2837    2094.9364 2.4539492e-10 -4.6361044e-11 1.9903387e-10 -7.966623e+09    8.5853364 
  116200    1146.0313    2091.6711 2.4279912e-10 -4.3764552e-11 1.9903456e-10 -5.3429845e+09    8.5511598 
  116400    1152.7818    2089.5506 2.4422928e-10 -4.5195283e-11  1.99034e-10 -5.7216895e+09    8.5264505 
  116600    1152.0272    2090.2949 2.4406941e-10 -4.5032898e-11 1.9903652e-10 -4.5743485e+09    8.5078234 
  116800    1149.0249    2093.8447 2.4343333e-10 -4.4398432e-11 1.990349e-10 -5.4543286e+09    8.4855374 
  117000    1154.3018    2093.9774 2.445513e-10 -4.5515144e-11 1.9903616e-10 -6.7169587e+09    8.4550077 
  117200    1154.1059    2088.8849 2.4450981e-10 -4.547461e-11 1.990352e-10 -3.8316038e+09    8.4318563 
  117400    1166.8021    2096.1014 2.4719962e-10 -4.816481e-11 1.9903481e-10 -6.7049027e+09    8.4081938 
  117600    1159.5564    2095.3081 2.4566455e-10 -4.6628832e-11 1.9903572e-10 -3.7591093e+09    8.3852761 
  117800    1164.7332    2095.1865 2.4676131e-10 -4.7720706e-11 1.990406e-10 -2.9340183e+09    8.3724077 
  118000    1150.9631    2092.9051 2.4384397e-10 -4.4802582e-11 1.9904139e-10 -2.6152996e+09    8.3565067 
  118200    1157.3917     2092.707 2.4520594e-10 -4.61649e-11 1.9904104e-10 -4.6220698e+09     8.338624 
  118400    1160.3912    2093.9866 2.4584141e-10 -4.680094e-11 1.9904047e-10 -1.4484938e+09    8.3246811 
  118600    1163.7502    2099.5434 2.4655305e-10 -4.751234e-11 1.9904071e-10 1.7404975e+09    8.3273042 
  118800     1161.375    2094.4506 2.4604983e-10 -4.7008792e-11 1.9904104e-10 3.5185725e+09    8.3428764 
  119000    1161.1626    2093.7822 2.4600485e-10 -4.6963992e-11 1.9904086e-10 1.8273503e+09    8.3554412 
  119200    1151.8416    2093.1699 2.4403009e-10 -4.498984e-11 1.9904025e-10 3.3409104e+09    8.3630868 
  119400    1153.4723    2092.7108 2.4437556e-10 -4.5333361e-11 1.990422e-10 4.2685145e+09    8.3800325 
  119600    1149.1681    2090.2215 2.4346369e-10 -4.442213e-11 1.9904156e-10 1.0515269e+09    8.3962589 
  119800    1153.8193    2092.5145 2.4444909e-10 -4.5408273e-11 1.9904082e-10 6.6319102e+08     8.404768 
  120000    1154.6692    2098.9064 2.4462915e-10 -4.558825e-11 1.990409e-10 -7.041699e+08    8.4015176 
  120200    1166.6608    2096.6643 2.4716969e-10 -4.8128648e-11 1.9904104e-10 1.2774021e+09     8.403793 
  120400    1153.6667    2091.6391 2.4441675e-10 -4.5375579e-11 1.9904117e-10 -2.4123834e+09    8.4087604 
  120600    1152.6508    2091.3813 2.4420152e-10 -4.5159534e-11 1.9904199e-10 3.6201947e+09    8.4076756 
  120800    1153.9722    2097.7309 2.4448148e-10 -4.5440531e-11 1.9904095e-10 3.0668956e+09    8.4256892 
  121000     1166.405    2094.9603 2.4711549e-10 -4.8074529e-11 1.9904096e-10 7.2231203e+09    8.4520931 
  121200    1162.0968    2095.9929 2.4620276e-10 -4.7161797e-11 1.9904096e-10 8.7439904e+09    8.4855653 
  121400    1159.8405     2095.846 2.4572475e-10 -4.6683164e-11 1.9904158e-10 8.4763362e+09    8.5283163 
  121600    1153.7627     2091.029 2.4443709e-10 -4.5396159e-11 1.9904093e-10 6.6587674e+09    8.5606191 
  121800    1160.2923    2091.8769 2.4582047e-10 -4.6779554e-11 1.9904092e-10 6.8720054e+09     8.590689 
  122000    1153.7787    2091.5152 2.4444049e-10 -4.5399158e-11 1.9904134e-10 8.8454471e+09    8.6238921 
  122200    1159.8779    2095.5334 2.4573265e-10 -4.6691195e-11 1.9904146e-10 6.9875637e+09    8.6652697 
[...]
  165400    6.0643011    345.85989 1.2847877e-12 -7.1810112e-11 -7.0525324e-11    -46649932 0.0012555813 
  165600    5.9819271    345.88788 1.2673359e-12 -7.1792659e-11 -7.0525324e-11    -22701434 0.0010912146 
  165800    5.8787484    345.85109 1.2454764e-12 -7.17708e-11 -7.0525324e-11   -3914658.4 0.0010313576 
  166000     5.879956    345.79128 1.2457322e-12 -7.1771055e-11 -7.0525323e-11     23476716 0.0010724485 
  166200    6.1971468      345.752 1.3129325e-12 -7.1838257e-11 -7.0525324e-11     47405125 0.0012431219 
  166400    5.9502209    345.83446 1.2606186e-12 -7.1785942e-11 -7.0525323e-11     42138421 0.0014641982 
  166600    5.9906533    345.69464 1.2691846e-12 -7.1794508e-11 -7.0525324e-11   -285511.39  0.001572408 
  166800    5.9551278    345.79299 1.2616582e-12 -7.1786981e-11 -7.0525323e-11    -42682342 0.0014622972 
  167000    6.0916794      345.779 1.2905881e-12 -7.1815912e-11 -7.0525324e-11    -45902880 0.0012388572 
  167200    6.1004706    345.82103 1.2924506e-12 -7.1817774e-11 -7.0525323e-11    7657114.2 0.0011339134 
  167400    6.1413057    345.82139 1.301102e-12 -7.1826426e-11 -7.0525324e-11     35508898 0.0012641754 
  167600    6.1174864    345.77478 1.2960556e-12 -7.1821379e-11 -7.0525324e-11     12385484 0.0013765335 
  167800    6.0734759    345.79647 1.2867315e-12 -7.1812055e-11 -7.0525324e-11     23290781 0.0014372688 
  168000    5.9105749    345.72083 1.2522191e-12 -7.1777543e-11 -7.0525324e-11     49724455 0.0016205189 
  168200    5.9298307    345.74096 1.2562987e-12 -7.1781623e-11 -7.0525324e-11     10949804 0.0017870159 
  168400    6.0396281    345.71785 1.2795605e-12 -7.1804884e-11 -7.0525324e-11    -49282051 0.0016867475 
  168600    5.9264817    345.74985 1.2555892e-12 -7.1780913e-11 -7.0525324e-11    -55133186 0.0014202694 
  168800    5.9398564    345.80801 1.2584228e-12 -7.1783747e-11 -7.0525324e-11   -9147671.8 0.0012640769 
  169000    5.9465708    345.72954 1.2598453e-12 -7.1785169e-11 -7.0525324e-11     16525558   0.00129848 
  169200    6.1532837    345.75804 1.3036396e-12 -7.1828964e-11 -7.0525324e-11     14736162 0.0013738241 
  169400    5.8589937    345.68271 1.2412911e-12 -7.1766615e-11 -7.0525324e-11    1182163.2 0.0014155938 
  169600    6.0043229    345.81853 1.2720807e-12 -7.1797405e-11 -7.0525324e-11    -10349933 0.0013880876 
  169800    6.0330065    345.69643 1.2781576e-12 -7.1803482e-11 -7.0525324e-11    -19470510 0.0013269178 
  170000    6.0059708     345.6494 1.2724298e-12 -7.1797753e-11 -7.0525323e-11    -48377153 0.0011701117 
  170200    6.1116544    345.72305  1.29482e-12 -7.1820144e-11 -7.0525324e-11    -41396709 0.00094381267 
  170400    6.1075406    345.90881 1.2939485e-12 -7.1819272e-11 -7.0525324e-11    -22697017 0.00080574902 
  170600    5.9272408    345.91145  1.25575e-12 -7.1781073e-11 -7.0525323e-11    -27918821 0.00069444004 
  170800    6.1280313    345.76916 1.2982896e-12 -7.1823614e-11 -7.0525324e-11    -28426845 0.00055315577 
  171000    6.0636929     345.8151 1.2846588e-12 -7.1809983e-11 -7.0525324e-11     13192854 0.00050201149 
  171200     6.036117    345.77951 1.2788166e-12 -7.180414e-11 -7.0525324e-11     52784083 0.00067688105 
  171400    6.0049854    345.68857 1.272221e-12 -7.1797545e-11 -7.0525324e-11    5304589.5 0.00084232051 
  171600    5.9498555    345.73741 1.2605412e-12 -7.1785865e-11 -7.0525324e-11    -58796970 0.00070031476 
  171800    6.0676987    345.73349 1.2855075e-12 -7.1810831e-11 -7.0525324e-11    -47777615 0.00042395035 
  172000    5.9022925    345.71996 1.2504644e-12 -7.1775788e-11 -7.0525324e-11    4058273.2 0.00032359513 
  172200    6.1325265    345.75467 1.299242e-12 -7.1824567e-11 -7.0525325e-11     17535309 0.0003980668 
  172400    5.8175673    345.73157 1.2325145e-12 -7.1757838e-11 -7.0525324e-11    -19714485 0.00040523476 
  172600    5.8218092    345.80137 1.2334132e-12 -7.1758737e-11 -7.0525324e-11    -55821799 0.00021551413 
  172800    5.9142274    345.74769 1.252993e-12 -7.1778316e-11 -7.0525323e-11    -37090294 -1.8068537e-05 
  173000    6.0266757    345.73776 1.2768164e-12 -7.180214e-11 -7.0525324e-11    -12829825 -0.00011963546 
  173200    5.8731299    345.85269 1.244286e-12 -7.176961e-11 -7.0525324e-11    -29310382 -0.00020184985 
  173400    6.0086716    345.64489 1.273002e-12 -7.1798326e-11 -7.0525324e-11    -49884493 -0.00040262952 
  173600    5.7882344    345.79478   1.2263e-12 -7.1751624e-11 -7.0525324e-11    1178268.2 -0.00053717824 
  173800    6.0124009    345.75222 1.2737921e-12 -7.1799116e-11 -7.0525324e-11     29184855 -0.00043054024 
  174000    6.0836469    345.77925 1.2888863e-12 -7.1814211e-11 -7.0525324e-11    -30434983 -0.0004162117 
  174200    6.0470135    345.68609 1.2811251e-12 -7.180645e-11 -7.0525324e-11    -49103933 -0.00064413209 
  174400    5.8410189    345.73902 1.237483e-12 -7.1762807e-11 -7.0525324e-11     33429523 -0.00069780801 
  174600    5.9531341    345.79232 1.2612358e-12 -7.178656e-11 -7.0525324e-11     73370529 -0.00040911424 
  174800    6.0870723    345.74565 1.289612e-12 -7.1814936e-11 -7.0525324e-11     18084385 -0.00017665214 
  175000      6.11024    345.78561 1.2945204e-12 -7.1819844e-11 -7.0525324e-11    -27459518 -0.00022444419 
  175200    6.0808103    345.67698 1.2882854e-12 -7.1813609e-11 -7.0525324e-11   -8166407.8 -0.00032059636 
  175400    5.9356032    345.82108 1.2575217e-12 -7.1782845e-11 -7.0525324e-11     17650275 -0.00029300149 
  175600    6.1283929    345.77398 1.2983662e-12 -7.182369e-11 -7.0525324e-11     19214105 -0.00019995466 
  175800     6.063772    345.86295 1.2846756e-12   -7.181e-11 -7.0525324e-11     18689514 -0.00011450444 
  176000    6.1496881    345.88493 1.3028779e-12 -7.1828202e-11 -7.0525324e-11     17958469 -2.8131144e-05 
  176200    6.2150007    345.78149 1.316715e-12 -7.1842039e-11 -7.0525324e-11    587586.74 2.4292057e-05 
  176400    5.9127419    345.71225 1.2526783e-12 -7.1778001e-11 -7.0525323e-11    -28356591 -4.3716067e-05 
  176600    6.0959686    345.74637 1.2914968e-12 -7.1816821e-11 -7.0525324e-11    -17780052 -0.00017394684 
  176800    5.6858777    345.96517 1.2046146e-12 -7.1729937e-11 -7.0525323e-11     24716836 -0.00015343369 
  177000    6.0267057    345.69785 1.2768227e-12 -7.1802146e-11 -7.0525324e-11     34636153 -3.2058004e-06 
  177200    5.9156392    345.76172 1.2532921e-12 -7.1778615e-11 -7.0525323e-11     22085768 0.00013362465 
  177400    5.9488988     345.8516 1.2603385e-12 -7.1785662e-11 -7.0525323e-11   -886612.94 0.00018622455 
  177600     5.959576    345.81935 1.2626006e-12 -7.1787924e-11 -7.0525324e-11    -39787399 9.488692e-05 
  177800     6.030844    345.80294 1.2776995e-12 -7.1803023e-11 -7.0525324e-11    -34024497 -0.00010698619 
  178000     5.905892    345.76226 1.251227e-12 -7.177655e-11 -7.0525323e-11     13012654 -0.00014914475 
  178200    6.0974389    345.79701 1.2918083e-12 -7.1817132e-11 -7.0525324e-11     14955792 -6.3996095e-05 
  178400    6.1496904    345.82172 1.3028783e-12 -7.1828202e-11 -7.0525324e-11    -16859110 -6.6952402e-05 
  178600    5.9926731    345.75917 1.2696125e-12 -7.1794936e-11 -7.0525324e-11    -13739585 -0.00016185801 
  178800    5.9555533    345.77603 1.2617483e-12 -7.1787072e-11 -7.0525324e-11     22224056 -0.00013425374 
  179000    6.0566391    345.72623 1.2831644e-12 -7.1808489e-11 -7.0525324e-11      5178469 -5.1933257e-05 
  179200     5.840019    345.66815 1.2372711e-12 -7.1762595e-11 -7.0525324e-11    -18127639 -9.4139928e-05 
  179400      6.01017    345.60955 1.2733194e-12 -7.1798643e-11 -7.0525324e-11    7226661.8 -0.00013785456 
  179600    5.8676501    345.70959 1.2431251e-12 -7.1768448e-11 -7.0525323e-11     28368544 -3.1689996e-05 
  179800    6.0495734     345.7404 1.2816675e-12 -7.1806992e-11 -7.0525324e-11    -24229957 -3.1830455e-06 
  180000    6.0464776    345.76944 1.2810116e-12 -7.1806336e-11 -7.0525324e-11    -51365972 -0.00020924948 
  180200    5.9756513    345.83634 1.2660063e-12 -7.179133e-11 -7.0525324e-11    -18791665 -0.00037851785 
  180400    6.1011179    345.79231 1.2925877e-12 -7.1817912e-11 -7.0525324e-11    6610821.6 -0.00040377594 
  180600    5.9946309     345.6814 1.2700273e-12 -7.1795351e-11 -7.0525324e-11     35864706 -0.00030327647 
  180800    6.0109176    345.68061 1.2734778e-12 -7.1798801e-11 -7.0525323e-11     33660849 -0.00012397415 
  181000    6.1305573    345.74406 1.2988248e-12 -7.1824149e-11 -7.0525324e-11    -12542826 -6.6420888e-05 
  181200    5.9772213     345.7095 1.2663389e-12 -7.1791662e-11 -7.0525323e-11    -32023092 -0.00019452952 
  181400    6.0233256     345.8492 1.2761066e-12 -7.1801431e-11 -7.0525324e-11    -17305584 -0.00030621772 
  181600    6.0404621    345.64804 1.2797372e-12 -7.1805061e-11 -7.0525324e-11    -12574639 -0.00037507061 
  181800    5.8351243    345.66483 1.2362341e-12 -7.1761558e-11 -7.0525324e-11     11169951 -0.00038876411 
  182000    6.0483847     345.7672 1.2814156e-12 -7.180674e-11 -7.0525324e-11     46423488 -0.00025577353 
  182200    6.0753155    345.77678 1.2871212e-12 -7.1812445e-11 -7.0525324e-11     55071221 2.641458e-06 
  182400    6.0381939    345.71252 1.2792566e-12 -7.180458e-11 -7.0525324e-11   -8668531.2 0.00013164545 
  182600    6.1073877    345.68763 1.2939161e-12 -7.181924e-11 -7.0525324e-11    -62977628 -6.2177602e-05 
  182800    6.0758336    345.67187 1.287231e-12 -7.1812555e-11 -7.0525324e-11    -41114951 -0.0003236347 
  183000    5.8257256    345.73024 1.2342429e-12 -7.1759566e-11 -7.0525323e-11     -5564562 -0.00042152359 
  183200    6.0488674    345.66623 1.2815179e-12 -7.1806842e-11 -7.0525324e-11   -3329499.6 -0.00043198651 
  183400    6.0439932    345.78753 1.2804853e-12 -7.1805809e-11 -7.0525324e-11    796034.13 -0.0004462663 
  183600    5.9803075    345.77394 1.2669928e-12 -7.1792316e-11 -7.0525323e-11     14952747 -0.00040518366 
  183800    5.9474883    345.66139 1.2600397e-12 -7.1785363e-11 -7.0525323e-11    2630867.9 -0.00035520257 
  184000    5.9320057      345.826 1.2567595e-12 -7.1782083e-11 -7.0525324e-11    -10400841 -0.00038134762 
  184200    6.0317724    345.83967 1.2778962e-12 -7.180322e-11 -7.0525324e-11   -4800768.4 -0.00041875851 
  184400    5.9469219     345.6994 1.2599196e-12 -7.1785243e-11 -7.0525324e-11    -14614257 -0.00044850526 
  184600    6.0890455    345.72011 1.2900301e-12 -7.1815354e-11 -7.0525324e-11    -63595642 -0.00062495561 
  184800     6.066865    345.81134 1.2853309e-12 -7.1810654e-11 -7.0525323e-11    -47077279 -0.00092841612 
  185000    5.9557125    345.76413 1.261782e-12 -7.1787105e-11 -7.0525323e-11     50794813 -0.00092023883 
  185200    5.7855365    345.72217 1.2257284e-12 -7.1751052e-11 -7.0525323e-11     69529261 -0.00059401764 
  185400    5.9369063     345.7307 1.2577977e-12 -7.1783121e-11 -7.0525323e-11      5684239 -0.0004104165 
  185600     5.984345    345.74962 1.2678481e-12 -7.1793172e-11 -7.0525324e-11    -51549695 -0.00052678167 
  185800    6.0388287    345.69597 1.2793911e-12 -7.1804715e-11 -7.0525324e-11    -64923856 -0.00081982375 
  186000    5.9571484    345.64507 1.2620862e-12 -7.178741e-11 -7.0525324e-11    -15279105 -0.0010234809 
  186200    5.9470473    345.54887 1.2599462e-12 -7.178527e-11 -7.0525324e-11     24647229 -0.0009749522 
  186400     5.984099    345.67694 1.267796e-12 -7.179312e-11 -7.0525324e-11    -14150642 -0.00092378817 
  186600    6.0791385    345.73483 1.2879312e-12 -7.1813255e-11 -7.0525324e-11    -74580564 -0.0011429062 
  186800     6.115992    345.68564 1.295739e-12 -7.1821063e-11 -7.0525324e-11    -69067235 -0.0015019207 
  187000    5.9988936    345.64643 1.2709304e-12 -7.1796254e-11 -7.0525324e-11    -25089774 -0.0017197053 
  187200    5.9268021       345.64 1.2556571e-12 -7.1780981e-11 -7.0525324e-11    2234257.3 -0.0017617868 
  187400    5.9577899    345.67002 1.2622222e-12 -7.1787546e-11 -7.0525323e-11   -3714826.5 -0.0017519631 
  187600    6.1744634    345.67323 1.3081268e-12 -7.1833451e-11 -7.0525324e-11    -22826428 -0.0018191394 
  187800    6.0348435    345.72732 1.2785468e-12 -7.180387e-11 -7.0525323e-11    -16685330 -0.0019182561 
  188000    6.0947757    345.71509 1.2912441e-12 -7.1816568e-11 -7.0525323e-11    7890001.9 -0.0019470508 
  188200    6.0707421     345.8601 1.2861523e-12 -7.1811476e-11 -7.0525324e-11     35716553 -0.0018374885 
  188400    6.0458309    345.76272 1.2808746e-12 -7.1806199e-11 -7.0525324e-11     26935472 -0.0016760523 
  188600    5.9889256    345.69383 1.2688186e-12 -7.1794143e-11 -7.0525324e-11    -16522558 -0.0016475161 
  188800    5.8900969    345.73767 1.2478807e-12 -7.1773205e-11 -7.0525324e-11    -22452428 -0.0017646535 
  189000    5.8732823    345.66922 1.2443183e-12 -7.1769642e-11 -7.0525324e-11    1845894.9 -0.0018062761 
  189200    6.0857997    345.73472 1.2893424e-12 -7.1814667e-11 -7.0525324e-11   -9027264.1 -0.0018060144 
  189400    5.9918196    345.80222 1.2694317e-12 -7.1794755e-11 -7.0525324e-11    -35753484 -0.0019191337 
  189600    6.0274656    345.84291 1.2769837e-12 -7.1802307e-11 -7.0525324e-11    -10225773 -0.0020458209 
  189800    6.0178575    345.80268 1.2749481e-12 -7.1800272e-11 -7.0525324e-11     33018309 -0.0019873878 
  190000     6.029873    345.75998 1.2774938e-12 -7.1802818e-11 -7.0525324e-11     36078194 -0.0018056432 
  190200    6.0195314    345.73066 1.2753028e-12 -7.1800627e-11 -7.0525324e-11     -7600876 -0.0017295988 
  190400    5.8013735    345.66926 1.2290837e-12 -7.1754408e-11 -7.0525324e-11    -43152626 -0.0018644222 
  190600    6.0917377    345.65741 1.2906005e-12 -7.1815925e-11 -7.0525324e-11    -28855554 -0.0020423145 
  190800    6.0581457    345.72811 1.2834836e-12 -7.1808807e-11 -7.0525324e-11   -3714587.5 -0.0021188909 
  191000    5.9871745    345.66774 1.2684476e-12 -7.1793772e-11 -7.0525324e-11     13531674 -0.0020855038 
  191200    5.9481414    345.68931 1.260178e-12 -7.1785502e-11 -7.0525324e-11    1664662.1 -0.0020438159 
  191400    6.1444887    345.74143 1.3017763e-12 -7.1827101e-11 -7.0525324e-11    -10126765 -0.0020681875 
  191600    5.9891708    345.78127 1.2688705e-12 -7.1794194e-11 -7.0525324e-11   -8392710.1 -0.0021128865 
  191800    5.9578837    345.66561 1.262242e-12 -7.1787566e-11 -7.0525324e-11    -16605486 -0.0021669308 
  192000    5.9180918    345.66669 1.2538117e-12 -7.1779136e-11 -7.0525324e-11   -7477565.3 -0.0022362828 
  192200    5.9156398    345.71983 1.2532922e-12 -7.1778616e-11 -7.0525324e-11     13371838 -0.0022141469 
  192400    5.9930631    345.81947 1.2696952e-12 -7.1795019e-11 -7.0525324e-11    2728868.3 -0.0021676462 
  192600    6.1133939    345.82726 1.2951885e-12 -7.1820512e-11 -7.0525324e-11    -10449738 -0.0021885929 
  192800    6.0154405    345.77246 1.2744361e-12 -7.179976e-11 -7.0525324e-11    -22311996 -0.0022653515 
  193000    6.1632098    345.83431 1.3057426e-12 -7.1831067e-11 -7.0525324e-11    -20349172 -0.0023705199 
  193200    5.9145067    345.85951 1.2530521e-12 -7.1778376e-11 -7.0525324e-11    -12146437 -0.0024425566 
  193400    6.1758058    345.83259 1.3084112e-12 -7.1833736e-11 -7.0525325e-11   -7712830.6 -0.0024913557 
  193600    5.8764988     345.7651 1.2449998e-12 -7.1770323e-11 -7.0525323e-11     -2088578 -0.002509327 
  193800    6.1081121    345.78242 1.2940695e-12 -7.1819393e-11 -7.0525324e-11    -12130545 -0.0025387102 
  194000    5.9470074    345.85163 1.2599378e-12 -7.1785262e-11 -7.0525324e-11    -19810086 -0.0026154584 
  194200    5.8860424    345.80956 1.2470217e-12 -7.1772346e-11 -7.0525324e-11    -17102543 -0.002706753 
  194400    5.7453742     345.6467 1.2172196e-12 -7.1742543e-11 -7.0525324e-11   -5685506.7 -0.0027569173 
  194600    6.0206292    345.76242 1.2755353e-12 -7.180086e-11 -7.0525324e-11   -7657251.3 -0.002782439 
  194800    5.9716291    345.82936 1.2651541e-12 -7.1790478e-11 -7.0525324e-11   -5618580.6 -0.0028233969 
  195000    5.9652963    345.69176 1.2638125e-12 -7.1789136e-11 -7.0525324e-11     22298760 -0.0027900223 
  195200    5.9050142    345.68752 1.251041e-12 -7.1776364e-11 -7.0525323e-11     31313835 -0.0026462579 
  195400     6.076821    345.82543 1.2874402e-12 -7.1812764e-11 -7.0525323e-11   -7536683.8 -0.0025802741 
  195600    6.2638461     345.7228 1.3270635e-12 -7.1852387e-11 -7.0525324e-11    -38708398 -0.0027053815 
  195800    6.0385304    345.78521 1.2793279e-12 -7.1804652e-11 -7.0525324e-11    -12770280 -0.0028409006 
  196000    5.8109782    345.87238 1.2311185e-12 -7.1756442e-11 -7.0525324e-11     20860677 -0.0028148423 
  196200     6.052521    345.83446 1.282292e-12 -7.1807616e-11 -7.0525324e-11     14022390 -0.0027114177 
  196400    6.1752687    345.76091 1.3082974e-12 -7.1833622e-11 -7.0525325e-11    -22295403 -0.0027368036 
  196600    5.9588973    345.85755 1.2624568e-12 -7.178778e-11 -7.0525323e-11    -20994650 -0.002850042 
  196800    6.0547531    345.78309 1.2827649e-12 -7.1808089e-11 -7.0525324e-11    -14470425 -0.0029280973 
  197000    5.8636113    345.76431 1.2422694e-12 -7.1767594e-11 -7.0525324e-11    -12999938 -0.002991051 
  197200    5.9935687    345.82165 1.2698023e-12 -7.1795127e-11 -7.0525324e-11     11763633 -0.0030111089 
  197400    5.8226364    345.80291 1.2335884e-12 -7.1758912e-11 -7.0525324e-11     54181765 -0.0028519636 
  197600    5.8247385    345.71892 1.2340338e-12 -7.1759357e-11 -7.0525324e-11     59349794 -0.0025708069 
  197800    6.1366863     345.7731 1.3001233e-12 -7.1825447e-11 -7.0525324e-11     20856207 -0.0023759236 
  198000    6.1147194    345.83866 1.2954694e-12 -7.1820793e-11 -7.0525324e-11    7183167.3 -0.0023365869 
  198200     6.011304    345.69493 1.2735597e-12 -7.1798883e-11 -7.0525324e-11     31607136 -0.0022438087 
  198400    6.0164467    345.73933 1.2746492e-12 -7.1799973e-11 -7.0525324e-11    7562391.1 -0.0021273578 
  198600    6.0056785    345.69275 1.2723679e-12 -7.1797692e-11 -7.0525324e-11    -43459029 -0.0022206702 
  198800    5.8115063    345.73433 1.2312304e-12 -7.1756554e-11 -7.0525324e-11    -21625447 -0.0024086299 
  199000     5.981582    345.73529 1.2672628e-12 -7.1792587e-11 -7.0525324e-11     47469787 -0.0023411121 
  199200    5.9202452    345.67072 1.2542679e-12 -7.1779592e-11 -7.0525324e-11     51855577 -0.0020808842 
  199400    5.8666771    345.64281 1.2429189e-12 -7.1768243e-11 -7.0525324e-11    8559555.8 -0.0019367271 
  199600    6.0824529    345.65331 1.2886334e-12 -7.1813958e-11 -7.0525325e-11    -17699699 -0.0019719391 
  199800    5.9503091    345.67864 1.2606373e-12 -7.1785961e-11 -7.0525324e-11     -6724941 -0.0020424957 
  200000    6.0146746    345.73281 1.2742738e-12 -7.1799598e-11 -7.0525324e-11     23952735 -0.0020011595 
Loop time of 66.1336 on 20 procs for 200000 steps with 1024 atoms

98.7% CPU use with 20 MPI tasks x no OpenMP threads

MPI task timing breakdown:
Section |  min time  |  avg time  |  max time  |%varavg| %total
---------------------------------------------------------------
Pair    | 36.143     | 39.132     | 42.378     |  25.6 | 59.17
Kspace  | 8.1661     | 10.691     | 13.718     |  47.9 | 16.17
Neigh   | 0.36836    | 0.37765    | 0.3869     |   0.9 |  0.57
Comm    | 10.407     | 11.485     | 12.31      |  15.3 | 17.37
Output  | 0.56077    | 0.56214    | 0.56998    |   0.3 |  0.85
Modify  | 1.7165     | 2.0339     | 2.4122     |  12.3 |  3.08
Other   |            | 1.852      |            |       |  2.80

Nlocal:        51.2000 ave          57 max          47 min
Histogram: 1 0 3 6 3 2 1 2 1 1
Nghost:        1196.70 ave        1214 max        1185 min
Histogram: 3 4 3 3 0 1 2 0 2 2
Neighs:        4234.65 ave        4780 max        3795 min
Histogram: 3 1 1 5 2 3 2 0 1 2

Total # of neighbors = 84693
Ave neighs/atom = 82.708008
Neighbor list builds = 1931
Dangerous builds = 0

print "D=$D" append coefficients.csv
D=-0.00200115952928359
print "Simulation succesfully done!"
Simulation succesfully done!

clear
next Gamma
#next Npar
jump in.rdf_selfdiffusion
Total wall time: 0:09:00
